/*--------------------------------*- C++ -*----------------------------------*\
| =========                 |                                                 |
| \\      /  F ield         | OpenFOAM: The Open Source CFD Toolbox           |
|  \\    /   O peration     | Version:  2.3.x                                 |
|   \\  /    A nd           | Web:      www.OpenFOAM.org                      |
|    \\/     M anipulation  |                                                 |
\*---------------------------------------------------------------------------*/
FoamFile
{
    version     2.0;
    format      ascii;
    class       volScalarField;
    location    "5";
    object      T;
}
// * * * * * * * * * * * * * * * * * * * * * * * * * * * * * * * * * * * * * //

dimensions      [0 0 0 1 0 0 0];

internalField   nonuniform List<scalar> 
800
(
300
300
300
300
300
300
300.001
300.001
300.001
300.002
300.002
300.003
300.004
300.006
300.008
300.01
300.014
300.019
300.029
300.052
300
300
300
300
300.001
300.001
300.002
300.002
300.003
300.005
300.007
300.009
300.013
300.017
300.023
300.032
300.042
300.057
300.078
300.11
300
300
300.001
300.001
300.001
300.002
300.003
300.004
300.006
300.008
300.011
300.016
300.022
300.03
300.041
300.055
300.073
300.096
300.126
300.165
300.001
300.001
300.001
300.001
300.002
300.003
300.004
300.006
300.008
300.012
300.017
300.024
300.033
300.045
300.061
300.082
300.108
300.142
300.183
300.233
300.001
300.001
300.001
300.002
300.002
300.004
300.005
300.008
300.011
300.016
300.023
300.033
300.045
300.063
300.085
300.115
300.152
300.199
300.256
300.324
300.001
300.001
300.002
300.002
300.003
300.005
300.007
300.01
300.015
300.021
300.031
300.043
300.061
300.084
300.115
300.155
300.207
300.271
300.35
300.444
300.001
300.001
300.002
300.003
300.004
300.006
300.009
300.013
300.019
300.027
300.039
300.056
300.079
300.11
300.151
300.205
300.275
300.363
300.471
300.601
300.002
300.002
300.002
300.003
300.005
300.007
300.011
300.016
300.024
300.034
300.05
300.071
300.1
300.141
300.195
300.266
300.359
300.477
300.624
300.803
300.002
300.002
300.003
300.004
300.006
300.009
300.013
300.02
300.029
300.042
300.061
300.088
300.125
300.176
300.245
300.338
300.459
300.616
300.813
301.056
300.002
300.002
300.003
300.005
300.007
300.01
300.016
300.023
300.034
300.051
300.074
300.106
300.152
300.216
300.303
300.42
300.576
300.78
301.039
301.364
300.002
300.003
300.004
300.005
300.008
300.012
300.018
300.027
300.04
300.06
300.087
300.126
300.182
300.259
300.366
300.512
300.707
300.966
301.301
301.726
300.003
300.003
300.004
300.006
300.009
300.014
300.021
300.031
300.046
300.069
300.101
300.147
300.212
300.304
300.432
300.608
300.847
301.167
301.589
302.135
300.003
300.004
300.005
300.007
300.01
300.016
300.023
300.035
300.052
300.078
300.114
300.167
300.242
300.348
300.496
300.703
300.986
301.372
301.888
302.57
300.003
300.004
300.005
300.008
300.011
300.017
300.026
300.039
300.058
300.086
300.127
300.185
300.269
300.388
300.555
300.789
301.114
301.561
302.172
302.995
300.004
300.004
300.006
300.008
300.012
300.019
300.028
300.042
300.063
300.094
300.138
300.202
300.293
300.422
300.604
300.859
301.216
301.713
302.403
303.357
300.004
300.005
300.006
300.009
300.013
300.02
300.03
300.046
300.068
300.101
300.148
300.215
300.311
300.447
300.638
300.905
301.279
301.802
302.538
303.579
300.004
300.005
300.007
300.01
300.014
300.022
300.032
300.048
300.072
300.106
300.155
300.225
300.324
300.463
300.657
300.925
301.295
301.81
302.534
303.574
300.005
300.005
300.007
300.01
300.015
300.023
300.034
300.051
300.075
300.111
300.161
300.233
300.334
300.473
300.663
300.922
301.269
301.736
302.372
303.27
300.005
300.006
300.007
300.011
300.016
300.024
300.036
300.053
300.078
300.115
300.166
300.239
300.34
300.478
300.664
300.908
301.222
301.614
302.09
302.666
300.005
300.006
300.008
300.011
300.017
300.025
300.037
300.055
300.081
300.118
300.171
300.245
300.347
300.485
300.667
300.902
301.19
301.517
301.831
301.971
300.125
300.177
300.221
300.26
300.295
300.326
300.352
300.372
300.385
300.389
300.386
300.373
300.351
300.322
300.284
300.241
300.192
300.139
300.084
300.028
300.158
300.205
300.25
300.292
300.331
300.366
300.397
300.42
300.435
300.441
300.438
300.424
300.399
300.366
300.323
300.274
300.218
300.159
300.096
300.032
300.213
300.264
300.316
300.368
300.417
300.463
300.502
300.533
300.554
300.563
300.559
300.542
300.511
300.468
300.414
300.35
300.279
300.203
300.123
300.041
300.292
300.356
300.425
300.494
300.562
300.625
300.68
300.725
300.755
300.768
300.764
300.74
300.698
300.639
300.565
300.478
300.381
300.277
300.168
300.056
300.403
300.49
300.585
300.682
300.779
300.87
300.95
301.014
301.059
301.08
301.074
301.042
300.983
300.9
300.794
300.671
300.535
300.388
300.235
300.079
300.553
300.676
300.81
300.949
301.089
301.221
301.338
301.434
301.5
301.531
301.525
301.479
301.395
301.276
301.125
300.95
300.755
300.547
300.331
300.111
300.754
300.927
301.117
301.317
301.519
301.712
301.884
302.024
302.122
302.169
302.162
302.097
301.977
301.806
301.591
301.34
301.064
300.769
300.465
300.156
301.015
301.258
301.527
301.813
302.104
302.384
302.635
302.84
302.984
303.056
303.047
302.956
302.784
302.54
302.233
301.877
301.486
301.073
300.647
300.217
301.347
301.685
302.063
302.47
302.887
303.29
303.654
303.953
304.164
304.27
304.261
304.132
303.888
303.54
303.104
302.602
302.054
301.479
300.89
300.298
301.758
302.222
302.749
303.322
303.915
304.494
305.019
305.451
305.757
305.913
305.904
305.723
305.378
304.886
304.271
303.567
302.804
302.011
301.208
300.403
302.251
302.88
303.606
304.408
305.246
306.071
306.823
307.444
307.885
308.112
308.102
307.851
307.366
306.673
305.811
304.829
303.776
302.695
301.612
300.537
302.822
303.661
304.649
305.759
306.938
308.108
309.18
310.065
310.695
311.02
311.013
310.665
309.989
309.019
307.815
306.451
305.009
303.551
302.113
300.703
303.448
304.547
305.874
307.398
309.048
310.704
312.226
313.48
314.369
314.829
314.826
314.349
313.413
312.064
310.386
308.498
306.532
304.586
302.71
300.898
304.086
305.493
307.246
309.322
311.624
313.969
316.125
317.889
319.127
319.766
319.77
319.126
317.844
315.977
313.64
311.025
308.353
305.785
303.383
301.115
304.66
306.408
308.677
311.476
314.691
318.031
321.088
323.546
325.239
326.104
326.119
325.267
323.54
320.974
317.713
314.065
310.433
307.083
304.08
301.334
305.055
307.134
309.984
313.712
318.222
323.054
327.405
330.784
333.033
334.16
334.189
333.102
330.836
327.351
322.776
317.599
312.636
308.327
304.693
301.518
305.11
307.42
310.835
315.684
322.065
329.299
335.535
340.062
342.908
344.285
344.33
343.024
340.189
335.568
329.095
321.478
314.634
309.217
305.032
301.603
304.639
306.916
310.657
316.653
325.72
337.345
346.299
352.039
355.321
356.824
356.882
355.478
352.24
346.438
337.252
325.198
315.7
309.222
304.813
301.502
303.467
305.215
308.589
315.057
327.507
348.925
361.305
367.615
370.715
372.024
372.081
370.877
367.846
361.527
348.97
327.072
314.307
307.531
303.691
301.123
301.492
302.071
303.698
307.917
321.047
370.453
383.553
387.721
389.284
389.864
389.89
389.361
387.84
383.695
370.558
320.79
307.587
303.284
301.473
300.438
)
;

boundaryField
{
    inlet
    {
        type            fixedValue;
        value           nonuniform List<scalar> 
20
(
300
300
300
300
300
400
400
400
400
400
400
400
400
400
400
300
300
300
300
300
)
;
    }
    outlet
    {
        type            zeroGradient;
    }
    fixedWalls
    {
        type            inletOutlet;
        inletValue      uniform 300;
        value           nonuniform List<scalar> 
80
(
300
300
300
300.001
300.001
300.001
300.001
300.002
300.002
300.002
300.002
300.003
300.003
300.003
300.004
300.004
300.004
300.005
300.005
300.005
300
300
300
300
300
300
300
300
300
300
300
300
300
300
300
300
300
300
300
300
300.125
300.177
300.221
300.26
300.295
300.326
300.352
300.372
300.385
300.389
300.386
300.373
300.351
300.322
300.284
300.241
300.192
300.139
300.084
300.028
300
300
300
300
300
300
300
300
300
300
300
300
300
300
300
300
300
300
300
300
)
;
    }
    defaultFaces
    {
        type            empty;
    }
}


// ************************************************************************* //
