/*--------------------------------*- C++ -*----------------------------------*\
| =========                 |                                                 |
| \\      /  F ield         | OpenFOAM: The Open Source CFD Toolbox           |
|  \\    /   O peration     | Version:  2.3.x                                 |
|   \\  /    A nd           | Web:      www.OpenFOAM.org                      |
|    \\/     M anipulation  |                                                 |
\*---------------------------------------------------------------------------*/
FoamFile
{
    version     2.0;
    format      ascii;
    class       volScalarField;
    location    "5";
    object      Ts;
}
// * * * * * * * * * * * * * * * * * * * * * * * * * * * * * * * * * * * * * //

dimensions      [0 0 0 1 0 0 0];

internalField   nonuniform List<scalar> 
800
(
300
300
300
300.001
300.001
300.001
300.001
300.002
300.003
300.004
300.005
300.007
300.009
300.012
300.015
300.019
300.025
300.031
300.038
300.047
300
300
300
300.001
300.001
300.001
300.001
300.002
300.003
300.004
300.005
300.007
300.01
300.013
300.016
300.021
300.027
300.034
300.042
300.051
300
300
300
300.001
300.001
300.001
300.002
300.002
300.003
300.004
300.006
300.008
300.011
300.015
300.019
300.025
300.032
300.041
300.05
300.062
300
300
300.001
300.001
300.001
300.001
300.002
300.003
300.004
300.005
300.007
300.01
300.014
300.018
300.024
300.032
300.041
300.051
300.064
300.079
300
300
300.001
300.001
300.001
300.002
300.002
300.003
300.005
300.007
300.009
300.013
300.018
300.024
300.031
300.041
300.053
300.067
300.084
300.104
300.001
300.001
300.001
300.001
300.001
300.002
300.003
300.004
300.006
300.008
300.012
300.016
300.022
300.03
300.04
300.053
300.069
300.088
300.111
300.137
300.001
300.001
300.001
300.001
300.002
300.003
300.004
300.005
300.007
300.011
300.015
300.021
300.028
300.038
300.052
300.068
300.089
300.115
300.145
300.181
300.001
300.001
300.001
300.001
300.002
300.003
300.004
300.006
300.009
300.013
300.019
300.026
300.036
300.049
300.066
300.087
300.115
300.149
300.189
300.237
300.001
300.001
300.001
300.002
300.003
300.004
300.005
300.008
300.011
300.016
300.023
300.032
300.044
300.061
300.082
300.11
300.146
300.19
300.243
300.307
300.001
300.001
300.001
300.002
300.003
300.004
300.006
300.009
300.014
300.019
300.028
300.039
300.054
300.075
300.102
300.137
300.182
300.238
300.308
300.391
300.001
300.001
300.002
300.002
300.004
300.005
300.008
300.011
300.016
300.023
300.033
300.046
300.065
300.09
300.123
300.167
300.223
300.294
300.382
300.489
300.001
300.002
300.002
300.003
300.004
300.006
300.009
300.013
300.019
300.027
300.038
300.055
300.077
300.107
300.147
300.2
300.269
300.357
300.467
300.601
300.002
300.002
300.002
300.003
300.005
300.007
300.01
300.015
300.021
300.031
300.044
300.063
300.089
300.124
300.172
300.235
300.317
300.424
300.558
300.725
300.002
300.002
300.003
300.004
300.005
300.008
300.011
300.017
300.024
300.035
300.05
300.072
300.101
300.142
300.197
300.27
300.367
300.493
300.653
300.854
300.002
300.002
300.003
300.004
300.006
300.008
300.012
300.018
300.027
300.039
300.056
300.08
300.114
300.159
300.222
300.305
300.416
300.561
300.747
300.983
300.002
300.002
300.003
300.004
300.006
300.009
300.014
300.02
300.029
300.043
300.062
300.088
300.125
300.176
300.244
300.337
300.461
300.623
300.835
301.105
300.002
300.003
300.003
300.005
300.007
300.01
300.015
300.022
300.032
300.046
300.067
300.095
300.135
300.19
300.265
300.366
300.5
300.678
300.91
301.209
300.002
300.003
300.004
300.005
300.007
300.011
300.016
300.023
300.034
300.049
300.071
300.102
300.144
300.203
300.282
300.389
300.532
300.722
300.97
301.291
300.003
300.003
300.004
300.005
300.008
300.011
300.017
300.025
300.036
300.052
300.075
300.107
300.152
300.213
300.296
300.408
300.558
300.755
301.013
301.347
300.003
300.003
300.004
300.006
300.008
300.012
300.018
300.026
300.038
300.054
300.078
300.112
300.158
300.221
300.307
300.422
300.576
300.778
301.042
301.382
300.057
300.067
300.077
300.088
300.098
300.107
300.115
300.122
300.126
300.129
300.129
300.127
300.124
300.118
300.112
300.105
300.099
300.094
300.09
300.09
300.062
300.073
300.085
300.096
300.107
300.118
300.127
300.134
300.139
300.142
300.142
300.14
300.136
300.13
300.123
300.115
300.108
300.102
300.098
300.098
300.074
300.088
300.102
300.117
300.131
300.144
300.155
300.164
300.17
300.174
300.174
300.172
300.166
300.159
300.149
300.14
300.13
300.123
300.118
300.116
300.095
300.113
300.132
300.151
300.17
300.187
300.202
300.214
300.223
300.228
300.228
300.225
300.217
300.207
300.194
300.181
300.168
300.157
300.15
300.148
300.126
300.15
300.175
300.202
300.227
300.251
300.272
300.289
300.302
300.308
300.309
300.304
300.293
300.279
300.261
300.242
300.224
300.208
300.197
300.194
300.167
300.2
300.236
300.272
300.308
300.341
300.371
300.395
300.412
300.422
300.423
300.415
300.4
300.379
300.354
300.327
300.301
300.279
300.263
300.258
300.222
300.268
300.316
300.367
300.416
300.463
300.505
300.539
300.563
300.577
300.578
300.567
300.546
300.516
300.481
300.442
300.405
300.373
300.35
300.342
300.293
300.355
300.421
300.49
300.56
300.625
300.683
300.731
300.765
300.783
300.785
300.77
300.74
300.698
300.648
300.593
300.54
300.495
300.463
300.45
300.381
300.464
300.554
300.649
300.744
300.834
300.915
300.981
301.028
301.054
301.056
301.035
300.993
300.934
300.864
300.788
300.714
300.65
300.604
300.585
300.488
300.599
300.72
300.847
300.976
301.1
301.21
301.301
301.366
301.401
301.403
301.375
301.317
301.236
301.138
301.033
300.931
300.842
300.779
300.751
300.616
300.76
300.92
301.09
301.263
301.429
301.579
301.702
301.79
301.838
301.841
301.802
301.723
301.612
301.478
301.335
301.196
301.075
300.988
300.949
300.762
300.948
301.157
301.38
301.609
301.831
302.031
302.195
302.313
302.377
302.382
302.329
302.222
302.072
301.892
301.699
301.512
301.35
301.233
301.178
300.925
301.161
301.427
301.717
302.016
302.307
302.571
302.789
302.944
303.028
303.034
302.964
302.822
302.623
302.383
302.127
301.879
301.665
301.509
301.435
301.099
301.391
301.726
302.095
302.48
302.858
303.201
303.484
303.686
303.794
303.802
303.71
303.526
303.265
302.951
302.614
302.29
302.012
301.811
301.713
301.276
301.629
302.041
302.502
302.991
303.474
303.914
304.276
304.533
304.67
304.679
304.562
304.326
303.99
303.585
303.151
302.735
302.38
302.125
302.001
301.444
301.86
302.355
302.92
303.529
304.138
304.693
305.146
305.465
305.634
305.645
305.499
305.205
304.783
304.269
303.716
303.191
302.749
302.435
302.282
301.59
302.066
302.644
303.319
304.064
304.821
305.506
306.059
306.444
306.646
306.658
306.483
306.127
305.61
304.97
304.279
303.629
303.093
302.719
302.537
301.704
302.229
302.881
303.663
304.553
305.477
306.305
306.957
307.403
307.634
307.648
307.447
307.034
306.421
305.645
304.793
304.008
303.381
302.953
302.749
301.78
302.336
303.041
303.91
304.938
306.049
307.012
307.747
308.238
308.489
308.504
308.285
307.83
307.138
306.231
305.199
304.286
303.584
303.12
302.903
301.822
302.391
303.119
304.034
305.157
306.449
307.506
308.284
308.795
309.054
309.07
308.844
308.37
307.638
306.642
305.433
304.432
303.694
303.217
302.998
)
;

boundaryField
{
    inlet
    {
        type            zeroGradient;
    }
    outlet
    {
        type            zeroGradient;
    }
    fixedWalls
    {
        type            zeroGradient;
    }
    defaultFaces
    {
        type            empty;
    }
}


// ************************************************************************* //
