/*--------------------------------*- C++ -*----------------------------------*\
| =========                 |                                                 |
| \\      /  F ield         | OpenFOAM: The Open Source CFD Toolbox           |
|  \\    /   O peration     | Version:  2.3.x                                 |
|   \\  /    A nd           | Web:      www.OpenFOAM.org                      |
|    \\/     M anipulation  |                                                 |
\*---------------------------------------------------------------------------*/
FoamFile
{
    version     2.0;
    format      ascii;
    class       volScalarField;
    location    "9";
    object      T;
}
// * * * * * * * * * * * * * * * * * * * * * * * * * * * * * * * * * * * * * //

dimensions      [0 0 0 1 0 0 0];

internalField   nonuniform List<scalar> 
800
(
300.002
300.002
300.002
300.003
300.004
300.005
300.006
300.008
300.011
300.014
300.018
300.023
300.03
300.038
300.048
300.062
300.08
300.106
300.153
300.267
300.005
300.005
300.006
300.008
300.01
300.014
300.018
300.024
300.031
300.041
300.053
300.069
300.088
300.113
300.143
300.182
300.232
300.298
300.394
300.542
300.008
300.009
300.011
300.013
300.017
300.023
300.03
300.04
300.052
300.068
300.089
300.115
300.147
300.188
300.238
300.3
300.378
300.476
300.601
300.76
300.012
300.013
300.015
300.019
300.024
300.032
300.042
300.056
300.074
300.096
300.125
300.162
300.208
300.264
300.335
300.421
300.525
300.652
300.804
300.983
300.015
300.016
300.019
300.024
300.031
300.041
300.055
300.073
300.096
300.125
300.163
300.211
300.271
300.345
300.436
300.547
300.68
300.839
301.024
301.235
300.018
300.02
300.024
300.03
300.039
300.051
300.068
300.09
300.119
300.156
300.203
300.263
300.338
300.431
300.545
300.684
300.849
301.045
301.272
301.528
300.022
300.024
300.028
300.036
300.046
300.061
300.081
300.108
300.143
300.187
300.245
300.318
300.409
300.523
300.662
300.832
301.035
301.276
301.555
301.871
300.026
300.028
300.033
300.042
300.054
300.072
300.095
300.126
300.167
300.22
300.288
300.375
300.484
300.62
300.788
300.992
301.239
301.533
301.875
302.267
300.029
300.032
300.038
300.048
300.062
300.082
300.109
300.145
300.193
300.254
300.333
300.434
300.561
300.721
300.92
301.164
301.46
301.814
302.232
302.716
300.033
300.036
300.043
300.054
300.07
300.093
300.123
300.164
300.218
300.288
300.378
300.493
300.64
300.825
301.056
301.341
301.691
302.115
302.62
303.212
300.037
300.04
300.047
300.06
300.078
300.103
300.137
300.183
300.242
300.321
300.422
300.552
300.717
300.927
301.191
301.52
301.926
302.424
303.026
303.743
300.04
300.044
300.052
300.065
300.085
300.113
300.15
300.2
300.266
300.352
300.463
300.607
300.791
301.024
301.319
301.69
302.154
302.728
303.433
304.288
300.044
300.047
300.056
300.071
300.092
300.122
300.163
300.217
300.288
300.381
300.502
300.657
300.857
301.111
301.435
301.844
302.359
303.006
303.813
304.811
300.047
300.051
300.06
300.076
300.099
300.131
300.174
300.231
300.307
300.407
300.535
300.701
300.913
301.184
301.53
301.968
302.526
303.233
304.131
305.266
300.05
300.054
300.064
300.081
300.105
300.138
300.184
300.245
300.324
300.428
300.563
300.736
300.957
301.24
301.599
302.055
302.637
303.382
304.342
305.586
300.053
300.057
300.067
300.085
300.11
300.145
300.193
300.256
300.339
300.446
300.585
300.763
300.989
301.276
301.639
302.098
302.681
303.428
304.4
305.691
300.055
300.06
300.07
300.088
300.114
300.151
300.2
300.265
300.35
300.46
300.602
300.782
301.01
301.295
301.652
302.097
302.654
303.357
304.268
305.493
300.057
300.062
300.073
300.091
300.118
300.156
300.206
300.272
300.359
300.471
300.614
300.795
301.021
301.302
301.646
302.064
302.57
303.182
303.938
304.928
300.059
300.064
300.075
300.094
300.122
300.16
300.211
300.279
300.367
300.48
300.624
300.804
301.028
301.302
301.632
302.02
302.466
302.958
303.478
304.019
300.061
300.066
300.077
300.096
300.124
300.163
300.215
300.284
300.373
300.487
300.632
300.812
301.035
301.306
301.626
301.994
302.396
302.792
303.085
303.043
300.636
300.892
301.091
301.257
301.397
301.512
301.603
301.666
301.7
301.702
301.671
301.606
301.509
301.379
301.222
301.038
300.833
300.61
300.374
300.128
300.77
300.984
301.175
301.343
301.488
301.611
301.709
301.778
301.816
301.82
301.789
301.721
301.617
301.479
301.31
301.114
300.894
300.654
300.401
300.137
300.955
301.156
301.35
301.529
301.691
301.831
301.944
302.027
302.073
302.081
302.048
301.972
301.855
301.698
301.504
301.279
301.026
300.752
300.46
300.157
301.186
301.399
301.613
301.819
302.01
302.179
302.319
302.422
302.483
302.497
302.46
302.372
302.232
302.044
301.811
301.54
301.235
300.904
300.554
300.189
301.469
301.717
301.971
302.22
302.456
302.668
302.846
302.981
303.063
303.085
303.044
302.938
302.766
302.534
302.245
301.908
301.53
301.12
300.685
300.234
301.812
302.115
302.429
302.743
303.043
303.317
303.549
303.728
303.839
303.875
303.829
303.698
303.483
303.19
302.825
302.399
301.922
301.406
300.86
300.293
302.223
302.602
303
303.401
303.79
304.148
304.456
304.695
304.848
304.903
304.85
304.687
304.415
304.042
303.577
303.034
302.428
301.774
301.084
300.369
302.707
303.186
303.693
304.212
304.719
305.192
305.602
305.923
306.134
306.215
306.156
305.952
305.606
305.127
304.532
303.838
303.067
302.237
301.365
300.465
303.265
303.87
304.52
305.192
305.857
306.482
307.029
307.463
307.752
307.871
307.806
307.55
307.107
306.493
305.729
304.842
303.859
302.809
301.711
300.582
303.893
304.657
305.487
306.358
307.231
308.06
308.792
309.378
309.774
309.947
309.875
309.553
308.987
308.196
307.214
306.078
304.83
303.505
302.13
300.723
304.581
305.537
306.595
307.723
308.871
309.972
310.954
311.746
312.287
312.534
312.458
312.052
311.325
310.306
309.041
307.586
306.001
304.337
302.627
300.89
305.306
306.493
307.836
309.295
310.805
312.273
313.593
314.664
315.402
315.75
315.673
315.16
314.225
312.907
311.272
309.404
307.392
305.311
303.203
301.082
306.03
307.487
309.179
311.066
313.06
315.026
316.807
318.256
319.26
319.744
319.669
319.022
317.817
316.106
313.98
311.57
309.013
306.421
303.848
301.295
306.692
308.452
310.567
313.004
315.651
318.308
320.725
322.685
324.04
324.704
324.637
323.821
322.27
320.039
317.254
314.115
310.852
307.635
304.533
301.517
307.201
309.279
311.889
315.032
318.576
322.215
325.524
328.171
329.977
330.867
330.813
329.796
327.809
324.893
321.202
317.05
312.85
308.876
305.197
301.727
307.432
309.796
312.946
316.98
321.787
326.891
331.472
335.024
337.377
338.526
338.491
337.253
334.749
330.945
325.976
320.34
314.86
309.981
305.728
301.884
307.22
309.743
313.396
318.496
325.124
332.587
339.019
343.693
346.626
348.022
348.012
346.577
343.539
338.646
331.838
323.83
316.547
310.645
305.931
301.924
306.373
308.766
312.664
318.84
328.092
339.89
348.993
354.845
358.194
359.711
359.726
358.222
354.828
348.818
339.375
327.023
317.188
310.339
305.521
301.759
304.707
306.452
309.895
316.465
329.028
350.554
363.028
369.409
372.551
373.868
373.898
372.63
369.5
363.049
350.33
328.245
315.267
308.257
304.158
301.298
302.06
302.54
304.169
308.42
321.587
371.032
384.164
388.358
389.935
390.519
390.536
389.984
388.429
384.238
371.045
321.211
307.935
303.551
301.65
300.509
)
;

boundaryField
{
    inlet
    {
        type            fixedValue;
        value           nonuniform List<scalar> 
20
(
300
300
300
300
300
400
400
400
400
400
400
400
400
400
400
300
300
300
300
300
)
;
    }
    outlet
    {
        type            zeroGradient;
    }
    fixedWalls
    {
        type            inletOutlet;
        inletValue      uniform 300;
        value           nonuniform List<scalar> 
80
(
300.002
300.005
300.008
300.012
300.015
300.018
300.022
300.026
300.029
300.033
300.037
300.04
300.044
300.047
300.05
300.053
300.055
300.057
300.059
300.061
300
300
300
300
300
300
300
300
300
300
300
300
300
300
300
300
300
300
300
300
300.636
300.892
301.091
301.257
301.397
301.512
301.603
301.666
301.7
301.702
301.671
301.606
301.509
301.379
301.222
301.038
300.833
300.61
300.374
300.128
300
300
300
300
300
300
300
300
300
300
300
300
300
300
300
300
300
300
300
300
)
;
    }
    defaultFaces
    {
        type            empty;
    }
}


// ************************************************************************* //
