/*--------------------------------*- C++ -*----------------------------------*\
| =========                 |                                                 |
| \\      /  F ield         | OpenFOAM: The Open Source CFD Toolbox           |
|  \\    /   O peration     | Version:  2.3.x                                 |
|   \\  /    A nd           | Web:      www.OpenFOAM.org                      |
|    \\/     M anipulation  |                                                 |
\*---------------------------------------------------------------------------*/
FoamFile
{
    version     2.0;
    format      ascii;
    class       volScalarField;
    location    "9";
    object      Ts;
}
// * * * * * * * * * * * * * * * * * * * * * * * * * * * * * * * * * * * * * //

dimensions      [0 0 0 1 0 0 0];

internalField   nonuniform List<scalar> 
800
(
300.009
300.01
300.011
300.014
300.017
300.021
300.027
300.035
300.044
300.056
300.07
300.088
300.109
300.134
300.163
300.197
300.236
300.28
300.33
300.384
300.01
300.01
300.011
300.014
300.017
300.022
300.028
300.036
300.046
300.058
300.073
300.091
300.113
300.139
300.17
300.206
300.247
300.293
300.345
300.402
300.01
300.011
300.012
300.015
300.018
300.023
300.03
300.038
300.049
300.063
300.079
300.099
300.123
300.152
300.187
300.226
300.272
300.323
300.381
300.444
300.011
300.012
300.013
300.016
300.02
300.026
300.033
300.043
300.055
300.07
300.089
300.112
300.139
300.172
300.212
300.257
300.31
300.369
300.435
300.508
300.012
300.013
300.015
300.018
300.023
300.029
300.037
300.048
300.062
300.08
300.101
300.128
300.16
300.199
300.245
300.299
300.36
300.431
300.509
300.594
300.014
300.015
300.017
300.02
300.026
300.033
300.043
300.055
300.071
300.092
300.117
300.148
300.186
300.232
300.286
300.35
300.424
300.508
300.601
300.704
300.015
300.016
300.019
300.023
300.029
300.038
300.049
300.063
300.082
300.106
300.135
300.172
300.216
300.27
300.335
300.411
300.499
300.6
300.713
300.838
300.017
300.018
300.021
300.026
300.033
300.043
300.056
300.072
300.094
300.121
300.156
300.198
300.251
300.314
300.39
300.48
300.585
300.706
300.843
300.994
300.019
300.021
300.024
300.029
300.037
300.048
300.063
300.082
300.107
300.139
300.178
300.228
300.288
300.362
300.452
300.558
300.682
300.826
300.99
301.173
300.022
300.023
300.027
300.033
300.042
300.054
300.071
300.093
300.121
300.157
300.202
300.259
300.329
300.414
300.518
300.642
300.788
300.958
301.152
301.371
300.024
300.025
300.03
300.037
300.047
300.06
300.079
300.104
300.135
300.176
300.227
300.291
300.371
300.469
300.587
300.73
300.9
301.098
301.327
301.586
300.026
300.028
300.033
300.04
300.051
300.067
300.087
300.115
300.15
300.195
300.252
300.324
300.413
300.524
300.658
300.821
301.015
301.244
301.51
301.813
300.028
300.03
300.036
300.044
300.056
300.073
300.096
300.125
300.164
300.214
300.277
300.356
300.456
300.578
300.729
300.911
301.13
301.39
301.694
302.045
300.031
300.033
300.038
300.047
300.061
300.079
300.103
300.136
300.178
300.232
300.301
300.388
300.496
300.631
300.796
300.998
301.241
301.531
301.874
302.272
300.033
300.035
300.041
300.051
300.065
300.085
300.111
300.146
300.191
300.249
300.323
300.417
300.534
300.679
300.859
301.078
301.343
301.662
302.041
302.486
300.035
300.037
300.044
300.054
300.069
300.09
300.118
300.155
300.203
300.265
300.343
300.443
300.568
300.723
300.914
301.149
301.434
301.777
302.188
302.675
300.037
300.039
300.046
300.057
300.073
300.095
300.124
300.163
300.213
300.278
300.361
300.466
300.597
300.76
300.961
301.208
301.509
301.873
302.309
302.831
300.038
300.041
300.048
300.059
300.076
300.099
300.129
300.17
300.222
300.29
300.376
300.485
300.621
300.791
301
301.256
301.568
301.946
302.401
302.946
300.04
300.043
300.05
300.061
300.079
300.102
300.134
300.176
300.23
300.299
300.388
300.5
300.64
300.814
301.029
301.292
301.612
301.998
302.463
303.021
300.041
300.044
300.051
300.063
300.081
300.105
300.137
300.18
300.235
300.307
300.397
300.511
300.654
300.831
301.049
301.316
301.64
302.032
302.501
303.063
300.443
300.504
300.565
300.623
300.677
300.725
300.766
300.799
300.822
300.835
300.838
300.831
300.816
300.793
300.766
300.737
300.709
300.686
300.671
300.667
300.463
300.527
300.59
300.651
300.708
300.759
300.802
300.837
300.862
300.875
300.878
300.871
300.854
300.83
300.801
300.77
300.74
300.715
300.698
300.693
300.511
300.58
300.65
300.718
300.781
300.839
300.888
300.927
300.955
300.971
300.974
300.965
300.946
300.919
300.885
300.849
300.814
300.784
300.764
300.759
300.585
300.665
300.746
300.825
300.899
300.967
301.025
301.072
301.105
301.124
301.127
301.117
301.094
301.06
301.019
300.975
300.933
300.896
300.871
300.863
300.686
300.781
300.878
300.974
301.064
301.147
301.218
301.275
301.315
301.338
301.343
301.329
301.3
301.258
301.207
301.152
301.098
301.052
301.02
301.008
300.815
300.931
301.049
301.166
301.278
301.38
301.469
301.54
301.591
301.619
301.625
301.608
301.571
301.517
301.452
301.382
301.314
301.254
301.212
301.196
300.973
301.115
301.26
301.405
301.545
301.672
301.784
301.873
301.937
301.973
301.98
301.958
301.91
301.842
301.759
301.669
301.581
301.505
301.45
301.427
301.159
301.333
301.513
301.693
301.867
302.027
302.167
302.28
302.361
302.406
302.415
302.386
302.326
302.238
302.132
302.017
301.904
301.806
301.735
301.703
301.372
301.586
301.807
302.031
302.247
302.448
302.624
302.767
302.869
302.926
302.936
302.9
302.822
302.71
302.574
302.427
302.284
302.158
302.066
302.024
301.612
301.872
302.143
302.418
302.687
302.938
303.158
303.337
303.466
303.538
303.55
303.504
303.405
303.262
303.09
302.903
302.721
302.561
302.443
302.387
301.874
302.187
302.517
302.854
303.186
303.497
303.772
303.995
304.156
304.246
304.261
304.202
304.077
303.897
303.679
303.444
303.213
303.011
302.863
302.79
302.154
302.527
302.924
303.334
303.74
304.124
304.464
304.742
304.942
305.053
305.071
304.997
304.84
304.614
304.341
304.045
303.756
303.504
303.318
303.225
302.442
302.882
303.356
303.85
304.344
304.813
305.232
305.574
305.821
305.958
305.98
305.887
305.691
305.409
305.068
304.7
304.342
304.029
303.798
303.682
302.729
303.24
303.799
304.388
304.984
305.555
306.066
306.485
306.786
306.953
306.978
306.864
306.621
306.273
305.851
305.397
304.955
304.572
304.29
304.147
303.002
303.587
304.236
304.931
305.643
306.332
306.95
307.457
307.821
308.022
308.051
307.911
307.616
307.19
306.672
306.115
305.577
305.113
304.774
304.602
303.246
303.904
304.646
305.454
306.297
307.121
307.862
308.468
308.9
309.136
309.17
309.003
308.649
308.135
307.506
306.829
306.179
305.627
305.227
305.025
303.449
304.172
305.002
305.927
306.912
307.889
308.768
309.478
309.98
310.252
310.29
310.096
309.681
309.072
308.318
307.502
306.728
306.083
305.623
305.393
303.598
304.372
305.278
306.313
307.446
308.594
309.618
310.431
310.996
311.3
311.341
311.123
310.653
309.951
309.063
308.089
307.183
306.448
305.938
305.686
303.69
304.495
305.454
306.576
307.847
309.182
310.342
311.238
311.849
312.175
312.219
311.985
311.475
310.698
309.683
308.532
307.502
306.697
306.154
305.891
303.736
304.551
305.531
306.697
308.061
309.576
310.828
311.766
312.397
312.731
312.777
312.537
312.012
311.197
310.097
308.774
307.66
306.822
306.269
306.007
)
;

boundaryField
{
    inlet
    {
        type            zeroGradient;
    }
    outlet
    {
        type            zeroGradient;
    }
    fixedWalls
    {
        type            zeroGradient;
    }
    defaultFaces
    {
        type            empty;
    }
}


// ************************************************************************* //
