/*--------------------------------*- C++ -*----------------------------------*\
| =========                 |                                                 |
| \\      /  F ield         | OpenFOAM: The Open Source CFD Toolbox           |
|  \\    /   O peration     | Version:  2.3.x                                 |
|   \\  /    A nd           | Web:      www.OpenFOAM.org                      |
|    \\/     M anipulation  |                                                 |
\*---------------------------------------------------------------------------*/
FoamFile
{
    version     2.0;
    format      ascii;
    class       volScalarField;
    location    "3";
    object      T;
}
// * * * * * * * * * * * * * * * * * * * * * * * * * * * * * * * * * * * * * //

dimensions      [0 0 0 1 0 0 0];

internalField   nonuniform List<scalar> 
800
(
300
300
300
300
300
300
300
300
300
300
300
300
300
300.001
300.001
300.001
300.002
300.003
300.004
300.008
300
300
300
300
300
300
300
300
300
300
300.001
300.001
300.002
300.002
300.003
300.004
300.006
300.009
300.012
300.018
300
300
300
300
300
300
300
300
300.001
300.001
300.001
300.002
300.003
300.004
300.006
300.008
300.011
300.016
300.021
300.029
300
300
300
300
300
300
300
300.001
300.001
300.001
300.002
300.003
300.004
300.006
300.009
300.013
300.018
300.025
300.034
300.045
300
300
300
300
300
300
300
300.001
300.001
300.002
300.003
300.004
300.006
300.009
300.014
300.02
300.028
300.038
300.052
300.069
300
300
300
300
300
300
300.001
300.001
300.002
300.003
300.004
300.006
300.009
300.014
300.02
300.029
300.041
300.057
300.078
300.104
300
300
300
300
300
300.001
300.001
300.001
300.002
300.004
300.005
300.008
300.013
300.019
300.029
300.042
300.06
300.084
300.115
300.156
300
300
300
300
300
300.001
300.001
300.002
300.003
300.005
300.007
300.011
300.018
300.027
300.04
300.059
300.085
300.12
300.168
300.229
300
300
300
300
300.001
300.001
300.001
300.002
300.004
300.006
300.01
300.015
300.023
300.036
300.054
300.081
300.118
300.17
300.24
300.331
300
300
300
300
300.001
300.001
300.002
300.003
300.005
300.008
300.012
300.02
300.031
300.047
300.072
300.109
300.161
300.234
300.335
300.47
300
300
300
300
300.001
300.001
300.002
300.004
300.006
300.01
300.016
300.025
300.039
300.061
300.094
300.142
300.214
300.315
300.458
300.651
300
300
300
300.001
300.001
300.002
300.003
300.004
300.007
300.012
300.019
300.03
300.048
300.076
300.118
300.181
300.275
300.412
300.607
300.877
300
300
300
300.001
300.001
300.002
300.003
300.005
300.008
300.014
300.022
300.036
300.058
300.092
300.144
300.224
300.344
300.522
300.78
301.147
300
300
300
300.001
300.001
300.002
300.004
300.006
300.01
300.016
300.026
300.042
300.068
300.108
300.17
300.266
300.413
300.635
300.964
301.444
300
300
300.001
300.001
300.001
300.002
300.004
300.007
300.011
300.018
300.029
300.048
300.076
300.122
300.194
300.305
300.477
300.74
301.138
301.735
300
300
300.001
300.001
300.002
300.003
300.004
300.007
300.012
300.02
300.032
300.052
300.084
300.134
300.212
300.335
300.524
300.818
301.271
301.967
300
300
300.001
300.001
300.002
300.003
300.005
300.008
300.013
300.021
300.035
300.056
300.09
300.143
300.225
300.352
300.549
300.853
301.324
302.066
300
300
300.001
300.001
300.002
300.003
300.005
300.009
300.014
300.023
300.037
300.059
300.094
300.149
300.232
300.358
300.549
300.836
301.273
301.956
300
300
300.001
300.001
300.002
300.003
300.005
300.009
300.015
300.024
300.039
300.062
300.098
300.153
300.235
300.357
300.534
300.783
301.129
301.613
300
300.001
300.001
300.001
300.002
300.004
300.006
300.01
300.016
300.025
300.041
300.065
300.102
300.157
300.24
300.359
300.523
300.737
300.982
301.169
300.02
300.028
300.036
300.043
300.049
300.055
300.061
300.065
300.068
300.069
300.069
300.067
300.063
300.058
300.051
300.043
300.034
300.025
300.015
300.005
300.026
300.034
300.043
300.051
300.059
300.066
300.073
300.079
300.082
300.084
300.084
300.081
300.077
300.07
300.062
300.052
300.041
300.03
300.018
300.006
300.038
300.049
300.06
300.072
300.083
300.094
300.104
300.112
300.118
300.121
300.12
300.117
300.11
300.101
300.089
300.075
300.059
300.043
300.026
300.008
300.058
300.074
300.09
300.108
300.127
300.144
300.16
300.173
300.182
300.187
300.187
300.181
300.171
300.156
300.137
300.115
300.091
300.066
300.039
300.013
300.089
300.113
300.14
300.168
300.198
300.226
300.252
300.273
300.288
300.296
300.296
300.288
300.271
300.247
300.217
300.182
300.144
300.104
300.062
300.02
300.136
300.174
300.216
300.262
300.31
300.356
300.398
300.433
300.458
300.472
300.472
300.458
300.432
300.393
300.345
300.289
300.228
300.163
300.098
300.032
300.206
300.265
300.332
300.406
300.483
300.558
300.627
300.684
300.725
300.747
300.748
300.726
300.683
300.621
300.544
300.454
300.357
300.255
300.153
300.05
300.306
300.398
300.504
300.622
300.745
300.866
300.977
301.07
301.137
301.174
301.175
301.141
301.072
300.973
300.848
300.706
300.553
300.395
300.236
300.078
300.448
300.589
300.755
300.941
301.136
301.33
301.508
301.658
301.766
301.824
301.827
301.773
301.663
301.506
301.309
301.085
300.846
300.602
300.358
300.118
300.643
300.858
301.114
301.402
301.71
302.017
302.301
302.539
302.711
302.804
302.809
302.723
302.552
302.303
301.995
301.646
301.276
300.903
300.535
300.176
300.904
301.225
301.613
302.057
302.537
303.02
303.467
303.841
304.112
304.258
304.266
304.134
303.866
303.479
302.998
302.458
301.893
301.33
300.784
300.257
301.24
301.709
302.289
302.966
303.707
304.458
305.155
305.738
306.157
306.382
306.396
306.193
305.781
305.183
304.442
303.613
302.757
301.92
301.124
300.367
301.652
302.323
303.173
304.19
305.323
306.483
307.561
308.455
309.094
309.435
309.456
309.15
308.526
307.614
306.479
305.216
303.932
302.706
301.57
300.511
302.124
303.056
304.276
305.781
307.499
309.282
310.933
312.286
313.24
313.743
313.775
313.325
312.395
311.022
309.298
307.384
305.473
303.705
302.122
300.686
302.612
303.86
305.564
307.754
310.341
313.074
315.584
317.598
318.984
319.703
319.748
319.105
317.759
315.724
313.12
310.221
307.399
304.893
302.753
300.882
303.03
304.62
306.912
310.028
313.906
318.122
321.92
324.848
326.786
327.765
327.826
326.952
325.072
322.125
318.211
313.786
309.632
306.162
303.381
301.07
303.245
305.122
308.031
312.32
318.115
324.776
330.496
334.604
337.16
338.401
338.477
337.371
334.896
330.776
324.917
317.994
311.894
307.244
303.836
301.193
303.079
305.034
308.378
313.921
322.508
333.662
342.191
347.585
350.629
352.022
352.108
350.87
347.93
342.541
333.86
322.374
313.482
307.625
303.843
301.167
302.362
303.949
307.08
313.254
325.388
346.493
358.59
364.671
367.614
368.851
368.928
367.836
365.004
358.96
346.738
325.217
312.85
306.481
303.051
300.9
301.007
301.6
303.155
307.273
320.288
369.582
382.579
386.664
388.171
388.726
388.76
388.27
386.822
382.776
369.759
320.126
307.065
302.907
301.24
300.354
)
;

boundaryField
{
    inlet
    {
        type            fixedValue;
        value           nonuniform List<scalar> 
20
(
300
300
300
300
300
400
400
400
400
400
400
400
400
400
400
300
300
300
300
300
)
;
    }
    outlet
    {
        type            zeroGradient;
    }
    fixedWalls
    {
        type            inletOutlet;
        inletValue      uniform 300;
        value           nonuniform List<scalar> 
80
(
300
300
300
300
300
300
300
300
300
300
300
300
300
300
300
300
300
300
300
300
300
300
300
300
300
300
300
300
300
300
300
300
300
300
300
300
300
300
300
300
300.02
300.028
300.036
300.043
300.049
300.055
300.061
300.065
300.068
300.069
300.069
300.067
300.063
300.058
300.051
300.043
300.034
300.025
300.015
300.005
300
300
300
300
300
300
300
300
300
300
300
300
300
300
300
300
300
300
300
300
)
;
    }
    defaultFaces
    {
        type            empty;
    }
}


// ************************************************************************* //
