/*--------------------------------*- C++ -*----------------------------------*\
| =========                 |                                                 |
| \\      /  F ield         | OpenFOAM: The Open Source CFD Toolbox           |
|  \\    /   O peration     | Version:  2.3.x                                 |
|   \\  /    A nd           | Web:      www.OpenFOAM.org                      |
|    \\/     M anipulation  |                                                 |
\*---------------------------------------------------------------------------*/
FoamFile
{
    version     2.0;
    format      ascii;
    class       volScalarField;
    location    "3";
    object      Ts;
}
// * * * * * * * * * * * * * * * * * * * * * * * * * * * * * * * * * * * * * //

dimensions      [0 0 0 1 0 0 0];

internalField   nonuniform List<scalar> 
800
(
300
300
300
300
300
300
300
300
300
300
300
300.001
300.001
300.001
300.001
300.002
300.002
300.003
300.004
300.005
300
300
300
300
300
300
300
300
300
300
300
300.001
300.001
300.001
300.002
300.002
300.003
300.004
300.005
300.006
300
300
300
300
300
300
300
300
300
300
300
300.001
300.001
300.001
300.002
300.003
300.004
300.005
300.006
300.008
300
300
300
300
300
300
300
300
300
300
300.001
300.001
300.001
300.002
300.003
300.004
300.005
300.007
300.009
300.011
300
300
300
300
300
300
300
300
300
300.001
300.001
300.001
300.002
300.003
300.004
300.005
300.007
300.01
300.013
300.017
300
300
300
300
300
300
300
300
300.001
300.001
300.001
300.002
300.003
300.004
300.005
300.007
300.01
300.014
300.019
300.024
300
300
300
300
300
300
300
300
300.001
300.001
300.002
300.002
300.004
300.005
300.007
300.011
300.015
300.02
300.027
300.035
300
300
300
300
300
300
300
300.001
300.001
300.001
300.002
300.003
300.005
300.007
300.01
300.015
300.02
300.028
300.038
300.051
300
300
300
300
300
300
300
300.001
300.001
300.002
300.003
300.004
300.006
300.009
300.014
300.02
300.028
300.039
300.053
300.071
300
300
300
300
300
300
300.001
300.001
300.001
300.002
300.004
300.005
300.008
300.012
300.018
300.026
300.038
300.053
300.073
300.099
300
300
300
300
300
300
300.001
300.001
300.002
300.003
300.004
300.007
300.011
300.016
300.024
300.035
300.05
300.071
300.098
300.134
300
300
300
300
300
300.001
300.001
300.001
300.002
300.004
300.006
300.009
300.013
300.02
300.03
300.044
300.064
300.092
300.129
300.179
300
300
300
300
300
300.001
300.001
300.002
300.003
300.004
300.007
300.01
300.016
300.024
300.037
300.055
300.081
300.117
300.166
300.231
300
300
300
300
300
300.001
300.001
300.002
300.003
300.005
300.008
300.012
300.019
300.029
300.045
300.067
300.099
300.144
300.207
300.291
300
300
300
300
300.001
300.001
300.001
300.002
300.004
300.006
300.009
300.014
300.022
300.034
300.052
300.079
300.117
300.173
300.25
300.356
300
300
300
300
300.001
300.001
300.002
300.003
300.004
300.007
300.01
300.016
300.025
300.039
300.06
300.091
300.136
300.201
300.293
300.422
300
300
300
300
300.001
300.001
300.002
300.003
300.005
300.007
300.012
300.018
300.028
300.044
300.067
300.102
300.153
300.227
300.333
300.482
300
300
300
300
300.001
300.001
300.002
300.003
300.005
300.008
300.013
300.02
300.031
300.048
300.074
300.112
300.167
300.249
300.366
300.532
300
300
300
300
300.001
300.001
300.002
300.003
300.005
300.009
300.014
300.021
300.033
300.052
300.079
300.12
300.179
300.266
300.391
300.568
300
300
300
300.001
300.001
300.001
300.002
300.004
300.006
300.009
300.015
300.023
300.036
300.055
300.084
300.126
300.189
300.279
300.409
300.592
300.007
300.008
300.01
300.011
300.013
300.014
300.015
300.016
300.017
300.017
300.017
300.017
300.016
300.016
300.014
300.013
300.012
300.011
300.011
300.011
300.008
300.009
300.011
300.013
300.015
300.016
300.018
300.019
300.02
300.02
300.02
300.02
300.019
300.018
300.017
300.015
300.014
300.013
300.012
300.012
300.01
300.012
300.015
300.017
300.02
300.022
300.024
300.026
300.027
300.028
300.028
300.027
300.026
300.025
300.023
300.021
300.019
300.017
300.016
300.016
300.014
300.018
300.021
300.025
300.029
300.032
300.036
300.038
300.04
300.041
300.041
300.04
300.039
300.036
300.033
300.03
300.027
300.025
300.023
300.023
300.021
300.026
300.032
300.037
300.043
300.049
300.054
300.058
300.061
300.063
300.063
300.061
300.059
300.055
300.05
300.045
300.041
300.037
300.034
300.034
300.031
300.039
300.047
300.056
300.066
300.074
300.082
300.089
300.094
300.096
300.096
300.094
300.09
300.084
300.076
300.069
300.061
300.055
300.051
300.049
300.045
300.057
300.07
300.084
300.098
300.112
300.125
300.135
300.142
300.146
300.146
300.143
300.136
300.127
300.115
300.103
300.091
300.081
300.074
300.072
300.066
300.083
300.103
300.125
300.146
300.168
300.187
300.203
300.214
300.22
300.221
300.215
300.205
300.19
300.172
300.153
300.135
300.119
300.108
300.104
300.094
300.12
300.149
300.182
300.215
300.247
300.277
300.301
300.319
300.328
300.329
300.32
300.304
300.281
300.254
300.224
300.196
300.172
300.154
300.148
300.131
300.169
300.213
300.261
300.31
300.359
300.404
300.441
300.467
300.481
300.482
300.47
300.445
300.41
300.368
300.324
300.281
300.244
300.217
300.206
300.18
300.234
300.298
300.368
300.441
300.514
300.58
300.635
300.674
300.695
300.697
300.678
300.641
300.589
300.526
300.459
300.395
300.339
300.3
300.283
300.241
300.318
300.408
300.509
300.616
300.721
300.818
300.899
300.957
300.988
300.989
300.962
300.907
300.831
300.738
300.64
300.545
300.464
300.406
300.38
300.316
300.421
300.547
300.689
300.842
300.994
301.134
301.25
301.333
301.377
301.379
301.34
301.261
301.15
301.017
300.874
300.737
300.62
300.536
300.498
300.403
300.544
300.715
300.912
301.126
301.341
301.538
301.702
301.819
301.88
301.883
301.828
301.717
301.559
301.37
301.167
300.973
300.808
300.691
300.636
300.498
300.682
300.909
301.175
301.469
301.766
302.04
302.265
302.425
302.509
302.512
302.436
302.284
302.066
301.802
301.52
301.251
301.025
300.865
300.789
300.596
300.826
301.118
301.469
301.862
302.266
302.636
302.938
303.149
303.259
303.264
303.163
302.961
302.669
302.31
301.924
301.56
301.259
301.049
300.949
300.688
300.966
301.327
301.773
302.287
302.822
303.31
303.7
303.969
304.107
304.112
303.985
303.728
303.348
302.874
302.36
301.88
301.493
301.228
301.103
300.764
301.083
301.51
302.054
302.703
303.398
304.019
304.502
304.826
304.99
304.997
304.845
304.533
304.063
303.457
302.787
302.177
301.701
301.384
301.238
300.818
301.166
301.642
302.27
303.055
303.932
304.687
305.25
305.618
305.801
305.807
305.637
305.283
304.734
303.998
303.147
302.408
301.856
301.501
301.341
300.85
301.213
301.714
302.389
303.27
304.33
305.18
305.788
306.176
306.367
306.374
306.196
305.821
305.229
304.399
303.368
302.538
301.945
301.573
301.409
)
;

boundaryField
{
    inlet
    {
        type            zeroGradient;
    }
    outlet
    {
        type            zeroGradient;
    }
    fixedWalls
    {
        type            zeroGradient;
    }
    defaultFaces
    {
        type            empty;
    }
}


// ************************************************************************* //
