/*--------------------------------*- C++ -*----------------------------------*\
| =========                 |                                                 |
| \\      /  F ield         | OpenFOAM: The Open Source CFD Toolbox           |
|  \\    /   O peration     | Version:  2.3.x                                 |
|   \\  /    A nd           | Web:      www.OpenFOAM.org                      |
|    \\/     M anipulation  |                                                 |
\*---------------------------------------------------------------------------*/
FoamFile
{
    version     2.0;
    format      ascii;
    class       volScalarField;
    location    "6";
    object      T;
}
// * * * * * * * * * * * * * * * * * * * * * * * * * * * * * * * * * * * * * //

dimensions      [0 0 0 1 0 0 0];

internalField   nonuniform List<scalar> 
800
(
300
300
300
300
300.001
300.001
300.001
300.002
300.002
300.003
300.004
300.006
300.008
300.011
300.015
300.019
300.026
300.035
300.052
300.092
300.001
300.001
300.001
300.001
300.002
300.003
300.004
300.005
300.007
300.01
300.013
300.018
300.025
300.033
300.044
300.058
300.077
300.102
300.138
300.192
300.001
300.001
300.002
300.002
300.003
300.004
300.006
300.009
300.012
300.017
300.023
300.031
300.042
300.057
300.075
300.099
300.13
300.168
300.218
300.282
300.002
300.002
300.002
300.003
300.004
300.006
300.009
300.012
300.017
300.024
300.033
300.046
300.062
300.083
300.11
300.145
300.188
300.242
300.308
300.387
300.002
300.002
300.003
300.004
300.006
300.008
300.012
300.017
300.023
300.033
300.045
300.062
300.084
300.113
300.15
300.198
300.257
300.329
300.417
300.519
300.003
300.003
300.004
300.005
300.007
300.01
300.015
300.021
300.03
300.042
300.059
300.081
300.11
300.148
300.198
300.26
300.339
300.435
300.551
300.687
300.003
300.004
300.005
300.006
300.009
300.013
300.019
300.027
300.038
300.053
300.074
300.102
300.139
300.189
300.253
300.335
300.438
300.565
300.718
300.899
300.004
300.004
300.006
300.008
300.011
300.016
300.023
300.032
300.046
300.065
300.091
300.126
300.173
300.235
300.317
300.422
300.555
300.72
300.922
301.162
300.005
300.005
300.007
300.009
300.013
300.019
300.027
300.039
300.055
300.078
300.109
300.152
300.21
300.288
300.389
300.521
300.69
300.903
301.165
301.48
300.005
300.006
300.008
300.011
300.015
300.022
300.031
300.045
300.065
300.092
300.129
300.181
300.251
300.344
300.469
300.632
300.843
301.111
301.446
301.855
300.006
300.007
300.009
300.012
300.017
300.025
300.036
300.052
300.074
300.106
300.15
300.21
300.293
300.404
300.553
300.751
301.008
301.34
301.76
302.281
300.007
300.008
300.01
300.014
300.019
300.028
300.041
300.059
300.084
300.12
300.17
300.24
300.335
300.464
300.639
300.871
301.178
301.579
302.094
302.745
300.007
300.008
300.011
300.015
300.022
300.031
300.045
300.065
300.094
300.134
300.19
300.268
300.375
300.521
300.72
300.987
301.343
301.814
302.43
303.223
300.008
300.009
300.012
300.016
300.024
300.034
300.049
300.071
300.103
300.147
300.208
300.293
300.411
300.572
300.792
301.088
301.488
302.023
302.734
303.672
300.009
300.01
300.013
300.018
300.025
300.037
300.053
300.077
300.111
300.158
300.224
300.315
300.441
300.614
300.848
301.167
301.598
302.181
302.969
304.032
300.009
300.011
300.014
300.019
300.027
300.039
300.057
300.082
300.117
300.167
300.237
300.333
300.464
300.644
300.887
301.215
301.66
302.263
303.087
304.226
300.01
300.011
300.015
300.02
300.029
300.041
300.06
300.086
300.123
300.175
300.247
300.346
300.48
300.662
300.906
301.231
301.666
302.25
303.048
304.166
300.011
300.012
300.015
300.021
300.03
300.043
300.062
300.09
300.128
300.182
300.255
300.355
300.491
300.671
300.91
301.221
301.625
302.147
302.835
303.78
300.011
300.013
300.016
300.022
300.031
300.045
300.065
300.093
300.132
300.187
300.262
300.363
300.498
300.676
300.907
301.199
301.561
301.994
302.498
303.079
300.012
300.013
300.017
300.023
300.032
300.047
300.067
300.096
300.136
300.191
300.267
300.37
300.506
300.683
300.908
301.188
301.518
301.876
302.196
302.293
300.221
300.313
300.388
300.453
300.51
300.56
300.601
300.632
300.651
300.657
300.649
300.627
300.59
300.54
300.478
300.405
300.323
300.235
300.143
300.048
300.275
300.356
300.431
300.5
300.562
300.618
300.664
300.7
300.722
300.73
300.721
300.697
300.657
300.601
300.532
300.451
300.36
300.262
300.159
300.054
300.36
300.443
300.527
300.607
300.683
300.752
300.81
300.856
300.885
300.896
300.887
300.858
300.809
300.74
300.655
300.555
300.444
300.323
300.196
300.066
300.478
300.577
300.68
300.782
300.882
300.973
301.051
301.113
301.153
301.169
301.16
301.122
301.059
300.969
300.858
300.727
300.58
300.422
300.257
300.087
300.636
300.764
300.899
301.037
301.171
301.297
301.406
301.492
301.55
301.575
301.563
301.514
301.428
301.307
301.156
300.979
300.781
300.568
300.345
300.116
300.842
301.014
301.197
301.386
301.573
301.748
301.902
302.024
302.108
302.145
302.131
302.065
301.947
301.782
301.575
301.332
301.062
300.771
300.468
300.158
301.108
301.34
301.592
301.853
302.113
302.359
302.576
302.751
302.87
302.925
302.909
302.82
302.658
302.43
302.145
301.811
301.442
301.046
300.634
300.213
301.442
301.756
302.1
302.461
302.823
303.168
303.475
303.723
303.894
303.975
303.956
303.834
303.613
303.299
302.906
302.45
301.946
301.409
300.853
300.287
301.851
302.275
302.743
303.239
303.742
304.224
304.655
305.006
305.25
305.368
305.346
305.182
304.878
304.447
303.909
303.286
302.603
301.881
301.137
300.382
302.342
302.906
303.538
304.216
304.911
305.582
306.186
306.68
307.026
307.196
307.172
306.95
306.535
305.946
305.212
304.366
303.446
302.482
301.496
300.502
302.912
303.655
304.5
305.422
306.377
307.308
308.152
308.844
309.331
309.573
309.549
309.249
308.685
307.882
306.883
305.74
304.507
303.231
301.941
300.65
303.549
304.514
305.634
306.878
308.186
309.476
310.65
311.615
312.296
312.639
312.615
312.214
311.449
310.357
309.001
307.46
305.818
304.144
302.478
300.828
304.225
305.459
306.926
308.594
310.383
312.168
313.8
315.141
316.085
316.565
316.543
316.009
314.978
313.497
311.656
309.578
307.399
305.222
303.101
301.033
304.888
306.433
308.331
310.554
313.001
315.479
317.749
319.603
320.898
321.558
321.543
320.839
319.459
317.455
314.95
312.139
309.248
306.442
303.787
301.255
305.458
307.338
309.748
312.692
316.049
319.52
322.69
325.237
326.987
327.873
327.868
326.957
325.133
322.432
319.005
315.164
311.316
307.732
304.48
301.473
305.811
308.009
310.988
314.848
319.49
324.444
328.902
332.363
334.666
335.811
335.822
334.679
332.322
328.711
323.981
318.624
313.461
308.934
305.068
301.649
305.786
308.191
311.712
316.674
323.167
330.506
336.834
341.433
344.325
345.718
345.747
344.392
341.477
336.747
330.14
322.367
315.35
309.745
305.361
301.718
305.195
307.532
311.349
317.429
326.581
338.287
347.312
353.108
356.425
357.94
357.985
356.543
353.243
347.356
338.066
325.891
316.259
309.636
305.071
301.594
303.862
305.626
309.039
315.557
328.061
349.53
361.955
368.3
371.423
372.739
372.788
371.559
368.488
362.115
349.491
327.517
314.667
307.799
303.86
301.185
301.67
302.225
303.859
308.095
321.243
370.667
383.783
387.963
389.534
390.117
390.14
389.602
388.068
383.904
370.743
320.949
307.716
303.381
301.535
300.462
)
;

boundaryField
{
    inlet
    {
        type            fixedValue;
        value           nonuniform List<scalar> 
20
(
300
300
300
300
300
400
400
400
400
400
400
400
400
400
400
300
300
300
300
300
)
;
    }
    outlet
    {
        type            zeroGradient;
    }
    fixedWalls
    {
        type            inletOutlet;
        inletValue      uniform 300;
        value           nonuniform List<scalar> 
80
(
300
300.001
300.001
300.002
300.002
300.003
300.003
300.004
300.005
300.005
300.006
300.007
300.007
300.008
300.009
300.009
300.01
300.011
300.011
300.012
300
300
300
300
300
300
300
300
300
300
300
300
300
300
300
300
300
300
300
300
300.221
300.313
300.388
300.453
300.51
300.56
300.601
300.632
300.651
300.657
300.649
300.627
300.59
300.54
300.478
300.405
300.323
300.235
300.143
300.048
300
300
300
300
300
300
300
300
300
300
300
300
300
300
300
300
300
300
300
300
)
;
    }
    defaultFaces
    {
        type            empty;
    }
}


// ************************************************************************* //
