/*--------------------------------*- C++ -*----------------------------------*\
| =========                 |                                                 |
| \\      /  F ield         | OpenFOAM: The Open Source CFD Toolbox           |
|  \\    /   O peration     | Version:  2.3.x                                 |
|   \\  /    A nd           | Web:      www.OpenFOAM.org                      |
|    \\/     M anipulation  |                                                 |
\*---------------------------------------------------------------------------*/
FoamFile
{
    version     2.0;
    format      ascii;
    class       volScalarField;
    location    "6";
    object      Ts;
}
// * * * * * * * * * * * * * * * * * * * * * * * * * * * * * * * * * * * * * //

dimensions      [0 0 0 1 0 0 0];

internalField   nonuniform List<scalar> 
800
(
300.001
300.001
300.001
300.001
300.002
300.003
300.004
300.005
300.007
300.009
300.012
300.016
300.02
300.026
300.034
300.042
300.053
300.065
300.079
300.095
300.001
300.001
300.001
300.002
300.002
300.003
300.004
300.005
300.007
300.009
300.013
300.017
300.022
300.028
300.036
300.045
300.057
300.07
300.085
300.103
300.001
300.001
300.001
300.002
300.002
300.003
300.004
300.006
300.008
300.011
300.014
300.019
300.025
300.032
300.041
300.053
300.066
300.081
300.1
300.12
300.001
300.001
300.001
300.002
300.003
300.004
300.005
300.007
300.009
300.013
300.017
300.023
300.03
300.039
300.05
300.064
300.08
300.1
300.122
300.148
300.001
300.001
300.002
300.002
300.003
300.004
300.006
300.008
300.011
300.015
300.021
300.028
300.037
300.048
300.062
300.08
300.101
300.125
300.154
300.187
300.002
300.002
300.002
300.003
300.004
300.005
300.007
300.01
300.014
300.019
300.025
300.034
300.045
300.06
300.078
300.1
300.127
300.159
300.196
300.239
300.002
300.002
300.002
300.003
300.004
300.006
300.009
300.012
300.017
300.023
300.031
300.042
300.056
300.074
300.097
300.125
300.16
300.201
300.249
300.305
300.002
300.002
300.003
300.004
300.005
300.007
300.01
300.014
300.02
300.028
300.038
300.051
300.069
300.091
300.12
300.155
300.199
300.252
300.315
300.387
300.002
300.003
300.003
300.004
300.006
300.009
300.012
300.017
300.024
300.033
300.045
300.062
300.083
300.111
300.146
300.191
300.246
300.313
300.392
300.485
300.003
300.003
300.004
300.005
300.007
300.01
300.014
300.02
300.028
300.039
300.054
300.073
300.099
300.133
300.176
300.231
300.299
300.383
300.483
300.6
300.003
300.004
300.004
300.006
300.008
300.012
300.016
300.023
300.033
300.045
300.063
300.086
300.117
300.157
300.209
300.275
300.358
300.461
300.585
300.732
300.004
300.004
300.005
300.007
300.009
300.013
300.019
300.027
300.037
300.052
300.072
300.099
300.135
300.183
300.244
300.323
300.422
300.546
300.697
300.877
300.004
300.004
300.006
300.008
300.01
300.015
300.021
300.03
300.042
300.059
300.082
300.113
300.154
300.209
300.28
300.372
300.489
300.635
300.815
301.033
300.004
300.005
300.006
300.008
300.012
300.017
300.024
300.033
300.047
300.066
300.092
300.127
300.173
300.235
300.316
300.421
300.555
300.725
300.936
301.193
300.005
300.005
300.007
300.009
300.013
300.018
300.026
300.037
300.052
300.073
300.101
300.14
300.191
300.26
300.351
300.468
300.619
300.811
301.052
301.349
300.005
300.006
300.007
300.01
300.014
300.02
300.028
300.04
300.056
300.079
300.11
300.152
300.208
300.283
300.382
300.511
300.677
300.89
301.158
301.492
300.006
300.006
300.008
300.011
300.015
300.021
300.03
300.043
300.06
300.084
300.118
300.163
300.223
300.304
300.41
300.548
300.727
300.957
301.248
301.614
300.006
300.007
300.008
300.011
300.016
300.022
300.032
300.045
300.064
300.089
300.125
300.172
300.236
300.321
300.433
300.579
300.768
301.01
301.318
301.707
300.006
300.007
300.009
300.012
300.017
300.023
300.033
300.047
300.067
300.094
300.13
300.18
300.246
300.335
300.451
300.603
300.798
301.049
301.367
301.77
300.007
300.007
300.009
300.012
300.017
300.024
300.035
300.049
300.069
300.097
300.135
300.186
300.255
300.345
300.465
300.62
300.82
301.076
301.4
301.808
300.114
300.133
300.152
300.171
300.189
300.206
300.22
300.231
300.24
300.244
300.245
300.242
300.235
300.226
300.216
300.204
300.193
300.184
300.179
300.178
300.122
300.143
300.163
300.184
300.204
300.222
300.238
300.25
300.259
300.264
300.264
300.261
300.254
300.244
300.232
300.22
300.208
300.198
300.191
300.19
300.143
300.167
300.191
300.216
300.24
300.262
300.28
300.296
300.306
300.312
300.313
300.309
300.3
300.288
300.273
300.258
300.243
300.23
300.222
300.22
300.176
300.206
300.237
300.268
300.299
300.327
300.351
300.371
300.385
300.392
300.393
300.388
300.376
300.36
300.341
300.32
300.3
300.284
300.272
300.269
300.223
300.262
300.303
300.344
300.384
300.421
300.454
300.48
300.498
300.509
300.51
300.502
300.487
300.465
300.439
300.411
300.384
300.361
300.345
300.34
300.286
300.338
300.392
300.447
300.5
300.55
300.594
300.63
300.655
300.668
300.67
300.66
300.639
300.609
300.573
300.535
300.497
300.465
300.443
300.435
300.367
300.435
300.507
300.581
300.653
300.72
300.779
300.827
300.862
300.88
300.882
300.868
300.839
300.799
300.749
300.696
300.645
300.6
300.569
300.557
300.468
300.558
300.653
300.75
300.847
300.937
301.017
301.082
301.129
301.154
301.157
301.138
301.098
301.042
300.975
300.903
300.832
300.771
300.728
300.71
300.591
300.707
300.832
300.961
301.089
301.21
301.317
301.404
301.467
301.501
301.504
301.478
301.425
301.349
301.258
301.16
301.064
300.982
300.922
300.897
300.735
300.885
301.048
301.216
301.385
301.545
301.687
301.803
301.887
301.932
301.936
301.901
301.829
301.728
301.605
301.474
301.346
301.235
301.155
301.118
300.902
301.093
301.301
301.52
301.739
301.948
302.135
302.289
302.398
302.458
302.464
302.417
302.321
302.186
302.024
301.85
301.68
301.533
301.426
301.376
301.088
301.328
301.591
301.871
302.153
302.425
302.668
302.868
303.011
303.088
303.096
303.034
302.909
302.731
302.518
302.29
302.067
301.875
301.734
301.667
301.29
301.585
301.914
302.267
302.627
302.974
303.287
303.544
303.729
303.828
303.838
303.757
303.595
303.365
303.088
302.792
302.504
302.255
302.074
301.986
301.5
301.858
302.262
302.699
303.152
303.592
303.99
304.317
304.551
304.677
304.688
304.586
304.378
304.084
303.729
303.349
302.982
302.666
302.436
302.323
301.708
302.132
302.619
303.155
303.716
304.267
304.766
305.176
305.468
305.624
305.638
305.509
305.249
304.877
304.429
303.948
303.485
303.09
302.805
302.664
301.901
302.393
302.967
303.611
304.297
304.978
305.595
306.099
306.456
306.646
306.661
306.504
306.184
305.725
305.166
304.564
303.991
303.508
303.162
302.991
302.067
302.621
303.28
304.038
304.863
305.693
306.444
307.05
307.474
307.698
307.716
307.53
307.148
306.592
305.907
305.166
304.467
303.889
303.483
303.283
302.194
302.797
303.532
304.398
305.369
306.37
307.264
307.97
308.456
308.71
308.73
308.518
308.079
307.429
306.607
305.706
304.873
304.203
303.744
303.523
302.276
302.911
303.698
304.652
305.762
306.948
307.979
308.768
309.3
309.574
309.595
309.366
308.886
308.157
307.206
306.126
305.165
304.423
303.928
303.695
302.32
302.968
303.778
304.776
305.98
307.348
308.471
309.303
309.854
310.137
310.159
309.923
309.426
308.658
307.618
306.363
305.317
304.539
304.032
303.797
)
;

boundaryField
{
    inlet
    {
        type            zeroGradient;
    }
    outlet
    {
        type            zeroGradient;
    }
    fixedWalls
    {
        type            zeroGradient;
    }
    defaultFaces
    {
        type            empty;
    }
}


// ************************************************************************* //
