/*--------------------------------*- C++ -*----------------------------------*\
| =========                 |                                                 |
| \\      /  F ield         | OpenFOAM: The Open Source CFD Toolbox           |
|  \\    /   O peration     | Version:  2.3.x                                 |
|   \\  /    A nd           | Web:      www.OpenFOAM.org                      |
|    \\/     M anipulation  |                                                 |
\*---------------------------------------------------------------------------*/
FoamFile
{
    version     2.0;
    format      ascii;
    class       volScalarField;
    location    "1";
    object      T;
}
// * * * * * * * * * * * * * * * * * * * * * * * * * * * * * * * * * * * * * //

dimensions      [0 0 0 1 0 0 0];

internalField   nonuniform List<scalar> 
800
(
300
300
300
300
300
300
300
300
300
300
300
300
300
300
300
300
300
300
300
300
300
300
300
300
300
300
300
300
300
300
300
300
300
300
300
300
300
300
300
300
300
300
300
300
300
300
300
300
300
300
300
300
300
300
300
300
300
300
300
300
300
300
300
300
300
300
300
300
300
300
300
300
300
300
300
300
300
300
300.001
300.001
300
300
300
300
300
300
300
300
300
300
300
300
300
300
300
300
300
300.001
300.001
300.001
300
300
300
300
300
300
300
300
300
300
300
300
300
300
300
300
300.001
300.001
300.002
300.003
300
300
300
300
300
300
300
300
300
300
300
300
300
300
300
300.001
300.001
300.002
300.003
300.005
300
300
300
300
300
300
300
300
300
300
300
300
300
300
300.001
300.001
300.002
300.004
300.006
300.008
300
300
300
300
300
300
300
300
300
300
300
300
300
300.001
300.001
300.002
300.004
300.006
300.01
300.015
300
300
300
300
300
300
300
300
300
300
300
300
300.001
300.001
300.002
300.003
300.006
300.01
300.016
300.025
300
300
300
300
300
300
300
300
300
300
300
300
300.001
300.002
300.003
300.005
300.009
300.015
300.026
300.042
300
300
300
300
300
300
300
300
300
300
300
300.001
300.001
300.002
300.004
300.008
300.014
300.024
300.041
300.068
300
300
300
300
300
300
300
300
300
300
300
300.001
300.002
300.003
300.006
300.011
300.02
300.035
300.062
300.106
300
300
300
300
300
300
300
300
300
300
300.001
300.001
300.002
300.004
300.008
300.014
300.027
300.05
300.09
300.159
300
300
300
300
300
300
300
300
300
300
300.001
300.001
300.003
300.005
300.01
300.018
300.035
300.066
300.123
300.225
300
300
300
300
300
300
300
300
300
300
300.001
300.002
300.003
300.006
300.011
300.022
300.043
300.083
300.158
300.298
300
300
300
300
300
300
300
300
300
300
300.001
300.002
300.003
300.007
300.013
300.025
300.049
300.095
300.185
300.359
300
300
300
300
300
300
300
300
300
300
300.001
300.002
300.004
300.007
300.014
300.027
300.052
300.1
300.193
300.379
300
300
300
300
300
300
300
300
300
300.001
300.001
300.002
300.004
300.008
300.015
300.028
300.052
300.097
300.178
300.332
300
300
300
300
300
300
300
300
300
300.001
300.001
300.002
300.004
300.008
300.016
300.029
300.053
300.092
300.155
300.235
300
300
300
300
300.001
300.001
300.001
300.001
300.001
300.001
300.001
300.001
300.001
300.001
300.001
300
300
300
300
300
300
300
300.001
300.001
300.001
300.001
300.001
300.001
300.001
300.001
300.001
300.001
300.001
300.001
300.001
300.001
300.001
300
300
300
300.001
300.001
300.001
300.001
300.001
300.002
300.002
300.002
300.002
300.002
300.002
300.002
300.002
300.002
300.002
300.001
300.001
300.001
300
300
300.001
300.001
300.002
300.002
300.003
300.003
300.004
300.004
300.004
300.005
300.005
300.004
300.004
300.004
300.003
300.003
300.002
300.001
300.001
300
300.002
300.003
300.004
300.005
300.006
300.007
300.008
300.008
300.009
300.009
300.009
300.009
300.008
300.007
300.006
300.005
300.004
300.003
300.002
300.001
300.004
300.005
300.007
300.009
300.011
300.013
300.015
300.017
300.018
300.018
300.018
300.018
300.017
300.015
300.013
300.01
300.008
300.005
300.003
300.001
300.007
300.01
300.013
300.017
300.021
300.025
300.029
300.033
300.035
300.036
300.036
300.035
300.033
300.029
300.025
300.02
300.015
300.011
300.006
300.002
300.012
300.018
300.024
300.032
300.041
300.049
300.057
300.064
300.069
300.071
300.071
300.069
300.064
300.057
300.049
300.039
300.03
300.02
300.012
300.004
300.022
300.032
300.045
300.06
300.077
300.094
300.11
300.123
300.133
300.138
300.139
300.134
300.124
300.111
300.094
300.075
300.056
300.038
300.022
300.007
300.039
300.057
300.081
300.111
300.144
300.178
300.21
300.236
300.255
300.266
300.267
300.258
300.239
300.212
300.179
300.142
300.106
300.072
300.041
300.013
300.066
300.1
300.146
300.202
300.266
300.333
300.396
300.448
300.485
300.506
300.508
300.49
300.455
300.403
300.338
300.266
300.196
300.131
300.074
300.023
300.11
300.171
300.255
300.362
300.487
300.618
300.74
300.841
300.913
300.952
300.956
300.924
300.856
300.756
300.63
300.491
300.355
300.234
300.13
300.04
300.177
300.284
300.437
300.638
300.878
301.133
301.371
301.564
301.698
301.77
301.778
301.72
301.594
301.402
301.159
300.891
300.632
300.407
300.223
300.069
300.274
300.456
300.728
301.1
301.559
302.055
302.511
302.874
303.12
303.249
303.264
303.16
302.931
302.573
302.106
301.588
301.098
300.688
300.368
300.112
300.404
300.701
301.168
301.845
302.719
303.683
304.555
305.222
305.658
305.88
305.905
305.728
305.323
304.665
303.775
302.772
301.849
301.118
300.58
300.174
300.556
301.015
301.786
302.984
304.634
306.523
308.176
309.367
310.103
310.464
310.505
310.219
309.536
308.361
306.679
304.721
302.995
301.722
300.858
300.252
300.698
301.347
302.537
304.568
307.652
311.432
314.524
316.557
317.715
318.253
318.314
317.89
316.816
314.813
311.672
307.773
304.579
302.455
301.159
300.331
300.761
301.562
303.198
306.381
311.998
319.904
325.536
328.733
330.352
331.05
331.131
330.585
329.085
325.939
320.239
312.128
306.369
303.097
301.361
300.374
300.645
301.408
303.204
307.402
316.867
334.895
344.379
348.599
350.399
351.101
351.185
350.643
348.98
344.838
335.293
316.936
307.342
303.094
301.236
300.324
300.28
300.625
301.644
304.876
316.531
364.021
375.679
378.922
379.951
380.295
380.335
380.072
379.116
375.932
364.278
316.478
304.81
301.585
300.551
300.136
)
;

boundaryField
{
    inlet
    {
        type            fixedValue;
        value           nonuniform List<scalar> 
20
(
300
300
300
300
300
400
400
400
400
400
400
400
400
400
400
300
300
300
300
300
)
;
    }
    outlet
    {
        type            zeroGradient;
    }
    fixedWalls
    {
        type            inletOutlet;
        inletValue      uniform 300;
        value           nonuniform List<scalar> 
80
(
300
300
300
300
300
300
300
300
300
300
300
300
300
300
300
300
300
300
300
300
300
300
300
300
300
300
300
300
300
300
300
300
300
300
300
300
300
300
300
300
300
300
300
300
300.001
300.001
300.001
300.001
300.001
300.001
300.001
300.001
300.001
300.001
300.001
300
300
300
300
300
300
300
300
300
300
300
300
300
300
300
300
300
300
300
300
300
300
300
300
300
)
;
    }
    defaultFaces
    {
        type            empty;
    }
}


// ************************************************************************* //
