/*--------------------------------*- C++ -*----------------------------------*\
| =========                 |                                                 |
| \\      /  F ield         | OpenFOAM: The Open Source CFD Toolbox           |
|  \\    /   O peration     | Version:  2.3.x                                 |
|   \\  /    A nd           | Web:      www.OpenFOAM.org                      |
|    \\/     M anipulation  |                                                 |
\*---------------------------------------------------------------------------*/
FoamFile
{
    version     2.0;
    format      ascii;
    class       volScalarField;
    location    "1";
    object      Ts;
}
// * * * * * * * * * * * * * * * * * * * * * * * * * * * * * * * * * * * * * //

dimensions      [0 0 0 1 0 0 0];

internalField   nonuniform List<scalar> 
800
(
300
300
300
300
300
300
300
300
300
300
300
300
300
300
300
300
300
300
300
300
300
300
300
300
300
300
300
300
300
300
300
300
300
300
300
300
300
300
300
300
300
300
300
300
300
300
300
300
300
300
300
300
300
300
300
300
300
300
300
300
300
300
300
300
300
300
300
300
300
300
300
300
300
300
300
300
300
300
300
300
300
300
300
300
300
300
300
300
300
300
300
300
300
300
300
300
300
300
300
300
300
300
300
300
300
300
300
300
300
300
300
300
300
300
300
300
300
300
300
300
300
300
300
300
300
300
300
300
300
300
300
300
300
300
300
300
300
300
300
300.001
300
300
300
300
300
300
300
300
300
300
300
300
300
300
300
300
300
300.001
300.001
300.001
300
300
300
300
300
300
300
300
300
300
300
300
300
300
300
300
300.001
300.001
300.001
300.002
300
300
300
300
300
300
300
300
300
300
300
300
300
300
300
300.001
300.001
300.001
300.002
300.003
300
300
300
300
300
300
300
300
300
300
300
300
300
300
300
300.001
300.001
300.002
300.003
300.005
300
300
300
300
300
300
300
300
300
300
300
300
300
300
300.001
300.001
300.002
300.003
300.005
300.008
300
300
300
300
300
300
300
300
300
300
300
300
300
300.001
300.001
300.002
300.003
300.005
300.008
300.013
300
300
300
300
300
300
300
300
300
300
300
300
300
300.001
300.001
300.002
300.004
300.007
300.011
300.019
300
300
300
300
300
300
300
300
300
300
300
300
300
300.001
300.002
300.003
300.005
300.009
300.016
300.026
300
300
300
300
300
300
300
300
300
300
300
300
300.001
300.001
300.002
300.004
300.007
300.012
300.021
300.035
300
300
300
300
300
300
300
300
300
300
300
300
300.001
300.001
300.002
300.004
300.008
300.014
300.026
300.045
300
300
300
300
300
300
300
300
300
300
300
300
300.001
300.001
300.003
300.005
300.009
300.017
300.031
300.054
300
300
300
300
300
300
300
300
300
300
300
300
300.001
300.002
300.003
300.006
300.011
300.019
300.035
300.062
300
300
300
300
300
300
300
300
300
300
300
300.001
300.001
300.002
300.004
300.006
300.012
300.021
300.038
300.068
300
300
300
300
300
300
300
300
300
300
300
300
300
300
300
300
300
300
300
300
300
300
300
300
300
300
300
300
300
300
300
300
300
300
300
300
300
300
300
300
300
300
300
300
300
300
300
300
300
300
300
300
300
300
300
300
300
300
300
300
300
300
300
300
300
300
300.001
300.001
300.001
300.001
300.001
300.001
300.001
300.001
300
300
300
300
300
300
300
300
300.001
300.001
300.001
300.001
300.001
300.001
300.001
300.001
300.001
300.001
300.001
300.001
300.001
300.001
300.001
300.001
300
300
300.001
300.001
300.001
300.001
300.001
300.002
300.002
300.002
300.002
300.002
300.002
300.002
300.002
300.002
300.002
300.001
300.001
300.001
300.001
300.001
300.001
300.001
300.002
300.002
300.003
300.003
300.004
300.004
300.004
300.004
300.004
300.004
300.004
300.004
300.003
300.003
300.002
300.002
300.002
300.001
300.002
300.002
300.003
300.004
300.005
300.006
300.007
300.008
300.008
300.008
300.008
300.008
300.007
300.007
300.006
300.005
300.004
300.003
300.003
300.003
300.003
300.004
300.006
300.007
300.009
300.011
300.012
300.014
300.015
300.015
300.015
300.015
300.014
300.012
300.011
300.009
300.007
300.006
300.005
300.004
300.005
300.007
300.01
300.013
300.016
300.019
300.022
300.025
300.027
300.028
300.028
300.027
300.025
300.022
300.019
300.016
300.013
300.01
300.008
300.007
300.008
300.012
300.016
300.022
300.028
300.034
300.04
300.044
300.048
300.049
300.049
300.048
300.044
300.039
300.034
300.028
300.022
300.017
300.014
300.012
300.013
300.019
300.027
300.037
300.048
300.059
300.069
300.078
300.084
300.087
300.087
300.084
300.078
300.069
300.059
300.047
300.037
300.028
300.022
300.02
300.02
300.03
300.044
300.06
300.08
300.1
300.118
300.133
300.144
300.149
300.149
300.144
300.134
300.118
300.1
300.08
300.061
300.046
300.035
300.031
300.03
300.046
300.069
300.097
300.13
300.165
300.198
300.224
300.242
300.251
300.252
300.243
300.225
300.199
300.166
300.131
300.099
300.072
300.054
300.046
300.043
300.068
300.104
300.151
300.208
300.268
300.323
300.367
300.397
300.412
300.413
300.399
300.369
300.325
300.27
300.21
300.154
300.11
300.08
300.067
300.059
300.097
300.152
300.228
300.321
300.422
300.514
300.585
300.633
300.657
300.657
300.635
300.589
300.518
300.426
300.325
300.232
300.16
300.113
300.093
300.077
300.13
300.211
300.327
300.476
300.642
300.79
300.901
300.972
301.007
301.008
300.976
300.906
300.796
300.648
300.482
300.333
300.222
300.152
300.122
300.095
300.164
300.274
300.442
300.671
300.936
301.163
301.325
301.424
301.47
301.472
301.429
301.332
301.172
300.944
300.678
300.45
300.289
300.192
300.151
300.11
300.192
300.331
300.552
300.88
301.288
301.613
301.829
301.954
302.011
302.013
301.959
301.837
301.623
301.298
300.889
300.563
300.349
300.227
300.177
300.121
300.212
300.369
300.629
301.044
301.625
302.037
302.291
302.433
302.497
302.499
302.438
302.299
302.047
301.635
301.054
300.642
300.39
300.252
300.197
)
;

boundaryField
{
    inlet
    {
        type            zeroGradient;
    }
    outlet
    {
        type            zeroGradient;
    }
    fixedWalls
    {
        type            zeroGradient;
    }
    defaultFaces
    {
        type            empty;
    }
}


// ************************************************************************* //
