/*--------------------------------*- C++ -*----------------------------------*\
| =========                 |                                                 |
| \\      /  F ield         | OpenFOAM: The Open Source CFD Toolbox           |
|  \\    /   O peration     | Version:  2.3.x                                 |
|   \\  /    A nd           | Web:      www.OpenFOAM.org                      |
|    \\/     M anipulation  |                                                 |
\*---------------------------------------------------------------------------*/
FoamFile
{
    version     2.0;
    format      ascii;
    class       volScalarField;
    location    "10";
    object      T;
}
// * * * * * * * * * * * * * * * * * * * * * * * * * * * * * * * * * * * * * //

dimensions      [0 0 0 1 0 0 0];

internalField   nonuniform List<scalar> 
800
(
300.003
300.003
300.003
300.004
300.005
300.007
300.009
300.011
300.015
300.019
300.024
300.031
300.039
300.05
300.063
300.079
300.101
300.134
300.193
300.334
300.008
300.009
300.01
300.012
300.016
300.02
300.026
300.034
300.044
300.056
300.072
300.092
300.116
300.147
300.185
300.232
300.293
300.375
300.493
300.676
300.013
300.014
300.017
300.02
300.026
300.033
300.043
300.056
300.072
300.093
300.12
300.152
300.193
300.243
300.305
300.381
300.476
300.594
300.746
300.939
300.018
300.02
300.023
300.028
300.036
300.047
300.06
300.078
300.101
300.131
300.168
300.214
300.27
300.34
300.426
300.529
300.655
300.806
300.987
301.2
300.024
300.025
300.03
300.037
300.046
300.06
300.078
300.101
300.131
300.169
300.217
300.276
300.35
300.44
300.55
300.682
300.839
301.025
301.241
301.486
300.029
300.031
300.036
300.045
300.057
300.074
300.096
300.124
300.161
300.208
300.267
300.341
300.432
300.544
300.679
300.842
301.035
301.261
301.521
301.813
300.034
300.037
300.043
300.053
300.068
300.087
300.114
300.148
300.192
300.248
300.319
300.408
300.518
300.652
300.816
301.013
301.246
301.519
301.833
302.187
300.04
300.043
300.05
300.062
300.078
300.101
300.132
300.172
300.224
300.289
300.373
300.477
300.606
300.766
300.96
301.194
301.474
301.802
302.182
302.613
300.045
300.049
300.057
300.07
300.089
300.115
300.15
300.196
300.255
300.331
300.426
300.546
300.696
300.882
301.109
301.384
301.715
302.106
302.564
303.089
300.051
300.054
300.064
300.078
300.1
300.129
300.168
300.22
300.286
300.371
300.479
300.616
300.786
300.998
301.259
301.578
301.965
302.427
302.973
303.607
300.056
300.06
300.07
300.086
300.11
300.143
300.186
300.243
300.316
300.411
300.531
300.683
300.874
301.112
301.407
301.771
302.215
302.752
303.396
304.156
300.061
300.066
300.076
300.094
300.12
300.155
300.202
300.264
300.345
300.448
300.579
300.746
300.955
301.218
301.546
301.952
302.453
303.067
303.813
304.711
300.066
300.071
300.082
300.101
300.129
300.167
300.218
300.284
300.371
300.482
300.623
300.802
301.028
301.312
301.668
302.112
302.665
303.35
304.198
305.237
300.07
300.076
300.088
300.108
300.138
300.178
300.232
300.302
300.394
300.511
300.661
300.85
301.09
301.39
301.767
302.24
302.833
303.577
304.512
305.685
300.074
300.08
300.093
300.114
300.145
300.188
300.244
300.318
300.414
300.536
300.692
300.889
301.137
301.448
301.838
302.326
302.941
303.719
304.712
305.989
300.078
300.084
300.098
300.12
300.152
300.196
300.255
300.331
300.43
300.557
300.717
300.918
301.171
301.485
301.877
302.366
302.978
303.753
304.752
306.067
300.082
300.088
300.102
300.124
300.158
300.203
300.263
300.342
300.443
300.572
300.735
300.939
301.191
301.504
301.888
302.359
302.94
303.666
304.594
305.834
300.085
300.091
300.105
300.129
300.162
300.209
300.271
300.351
300.454
300.585
300.749
300.952
301.203
301.508
301.878
302.319
302.845
303.472
304.235
305.224
300.087
300.093
300.108
300.132
300.167
300.214
300.277
300.358
300.462
300.594
300.759
300.962
301.21
301.508
301.861
302.269
302.73
303.229
303.745
304.264
300.089
300.096
300.11
300.135
300.17
300.218
300.281
300.364
300.469
300.602
300.767
300.97
301.216
301.51
301.853
302.239
302.653
303.051
303.329
303.242
300.796
301.113
301.358
301.56
301.727
301.864
301.97
302.042
302.079
302.077
302.036
301.956
301.836
301.679
301.487
301.265
301.016
300.745
300.458
300.157
300.957
301.221
301.453
301.655
301.828
301.973
302.085
302.164
302.205
302.205
302.164
302.079
301.953
301.786
301.583
301.347
301.082
300.794
300.488
300.168
301.175
301.418
301.648
301.861
302.049
302.211
302.34
302.431
302.481
302.485
302.442
302.349
302.208
302.021
301.791
301.524
301.224
300.898
300.552
300.189
301.439
301.69
301.939
302.177
302.395
302.585
302.741
302.854
302.918
302.928
302.881
302.774
302.609
302.389
302.118
301.802
301.448
301.062
300.652
300.224
301.756
302.04
302.328
302.609
302.873
303.107
303.302
303.447
303.532
303.551
303.498
303.372
303.174
302.907
302.577
302.192
301.76
301.29
300.791
300.271
302.133
302.472
302.821
303.167
303.496
303.793
304.043
304.232
304.348
304.379
304.321
304.169
303.925
303.595
303.186
302.708
302.173
301.592
300.976
300.334
302.577
302.994
303.427
303.862
304.281
304.664
304.99
305.241
305.398
305.448
305.382
305.197
304.894
304.481
303.968
303.369
302.7
301.976
301.21
300.414
303.092
303.61
304.156
304.709
305.248
305.747
306.176
306.51
306.725
306.801
306.728
306.501
306.121
305.601
304.954
304.2
303.361
302.456
301.502
300.513
303.678
304.325
305.014
305.723
306.421
307.073
307.641
308.088
308.381
308.496
308.415
308.134
307.657
306.998
306.179
305.228
304.174
303.043
301.858
300.634
304.331
305.137
306.008
306.917
307.824
308.681
309.435
310.034
310.435
310.602
310.516
310.167
309.565
308.728
307.688
306.486
305.162
303.753
302.286
300.778
305.037
306.036
307.135
308.302
309.484
310.614
311.618
312.423
312.97
313.211
313.12
312.687
311.923
310.856
309.532
308.009
306.346
304.595
302.79
300.948
305.772
307.002
308.385
309.883
311.427
312.923
314.265
315.35
316.093
316.436
316.343
315.804
314.831
313.465
311.771
309.834
307.744
305.574
303.369
301.141
306.497
307.994
309.726
311.65
313.676
315.671
317.473
318.935
319.943
320.423
320.333
319.659
318.418
316.659
314.476
311.998
309.364
306.684
304.014
301.354
307.148
308.946
311.098
313.569
316.246
318.929
321.366
323.339
324.698
325.358
325.275
324.435
322.849
320.573
317.733
314.529
311.192
307.892
304.696
301.576
307.636
309.746
312.388
315.56
319.132
322.794
326.122
328.78
330.59
331.476
331.408
330.368
328.349
325.392
321.65
317.439
313.17
309.118
305.352
301.783
307.833
310.221
313.397
317.454
322.285
327.408
332.006
335.567
337.923
339.068
339.022
337.764
335.232
331.391
326.378
320.689
315.148
310.2
305.869
301.936
307.573
310.111
313.78
318.898
325.544
333.023
339.467
344.15
347.085
348.478
348.458
347.007
343.945
339.022
332.178
324.127
316.793
310.833
306.053
301.97
306.664
309.059
312.964
319.151
328.415
340.224
349.336
355.194
358.545
360.06
360.068
358.551
355.14
349.107
339.637
327.252
317.38
310.487
305.619
301.796
304.919
306.649
310.091
316.666
329.235
350.768
363.248
369.632
372.775
374.091
374.116
372.84
369.7
363.235
350.499
328.393
315.393
308.355
304.224
301.324
302.159
302.616
304.241
308.492
321.662
371.109
384.243
388.438
390.016
390.599
390.614
390.06
388.501
384.305
371.106
321.266
307.982
303.588
301.676
300.521
)
;

boundaryField
{
    inlet
    {
        type            fixedValue;
        value           nonuniform List<scalar> 
20
(
300
300
300
300
300
400
400
400
400
400
400
400
400
400
400
300
300
300
300
300
)
;
    }
    outlet
    {
        type            zeroGradient;
    }
    fixedWalls
    {
        type            inletOutlet;
        inletValue      uniform 300;
        value           nonuniform List<scalar> 
80
(
300.003
300.008
300.013
300.018
300.024
300.029
300.034
300.04
300.045
300.051
300.056
300.061
300.066
300.07
300.074
300.078
300.082
300.085
300.087
300.089
300
300
300
300
300
300
300
300
300
300
300
300
300
300
300
300
300
300
300
300
300.796
301.113
301.358
301.56
301.727
301.864
301.97
302.042
302.079
302.077
302.036
301.956
301.836
301.679
301.487
301.265
301.016
300.745
300.458
300.157
300
300
300
300
300
300
300
300
300
300
300
300
300
300
300
300
300
300
300
300
)
;
    }
    defaultFaces
    {
        type            empty;
    }
}


// ************************************************************************* //
