/*--------------------------------*- C++ -*----------------------------------*\
| =========                 |                                                 |
| \\      /  F ield         | OpenFOAM: The Open Source CFD Toolbox           |
|  \\    /   O peration     | Version:  2.3.x                                 |
|   \\  /    A nd           | Web:      www.OpenFOAM.org                      |
|    \\/     M anipulation  |                                                 |
\*---------------------------------------------------------------------------*/
FoamFile
{
    version     2.0;
    format      ascii;
    class       volScalarField;
    location    "10";
    object      Ts;
}
// * * * * * * * * * * * * * * * * * * * * * * * * * * * * * * * * * * * * * //

dimensions      [0 0 0 1 0 0 0];

internalField   nonuniform List<scalar> 
800
(
300.016
300.017
300.019
300.023
300.028
300.035
300.043
300.054
300.068
300.085
300.106
300.131
300.16
300.194
300.234
300.28
300.332
300.39
300.455
300.526
300.017
300.018
300.02
300.023
300.028
300.035
300.044
300.056
300.07
300.088
300.109
300.135
300.165
300.201
300.243
300.291
300.345
300.406
300.474
300.547
300.018
300.018
300.021
300.025
300.03
300.038
300.047
300.06
300.075
300.094
300.117
300.145
300.179
300.218
300.263
300.316
300.375
300.442
300.516
300.596
300.019
300.02
300.022
300.027
300.033
300.041
300.052
300.066
300.083
300.104
300.13
300.161
300.199
300.243
300.294
300.354
300.422
300.497
300.581
300.672
300.021
300.022
300.025
300.029
300.036
300.046
300.058
300.073
300.093
300.117
300.147
300.182
300.225
300.276
300.336
300.404
300.483
300.571
300.668
300.773
300.023
300.024
300.028
300.033
300.041
300.051
300.065
300.083
300.105
300.133
300.167
300.208
300.258
300.317
300.386
300.466
300.558
300.661
300.776
300.9
300.026
300.027
300.031
300.037
300.046
300.058
300.073
300.094
300.119
300.151
300.19
300.238
300.295
300.364
300.445
300.539
300.647
300.769
300.905
301.053
300.028
300.03
300.034
300.041
300.051
300.065
300.083
300.106
300.135
300.171
300.216
300.271
300.338
300.417
300.511
300.621
300.748
300.892
301.054
301.231
300.032
300.034
300.038
300.046
300.057
300.073
300.093
300.119
300.152
300.193
300.244
300.307
300.384
300.475
300.584
300.712
300.86
301.03
301.22
301.431
300.035
300.037
300.042
300.051
300.064
300.081
300.103
300.133
300.17
300.216
300.274
300.345
300.432
300.537
300.662
300.809
300.981
301.179
301.403
301.652
300.038
300.041
300.047
300.056
300.07
300.089
300.114
300.147
300.188
300.24
300.305
300.385
300.483
300.601
300.743
300.911
301.108
301.337
301.597
301.889
300.042
300.044
300.051
300.061
300.077
300.097
300.125
300.161
300.207
300.264
300.336
300.425
300.534
300.666
300.825
301.015
301.238
301.499
301.798
302.136
300.045
300.048
300.055
300.066
300.083
300.106
300.136
300.175
300.225
300.288
300.366
300.464
300.583
300.729
300.906
301.117
301.367
301.66
301.999
302.386
300.048
300.052
300.059
300.071
300.089
300.114
300.146
300.188
300.242
300.31
300.395
300.501
300.631
300.79
300.982
301.214
301.489
301.814
302.193
302.63
300.052
300.055
300.063
300.076
300.095
300.121
300.156
300.201
300.258
300.331
300.422
300.535
300.675
300.846
301.053
301.303
301.602
301.956
302.373
302.857
300.054
300.058
300.066
300.08
300.101
300.128
300.165
300.212
300.273
300.35
300.446
300.566
300.714
300.895
301.115
301.381
301.701
302.081
302.53
303.057
300.057
300.061
300.07
300.084
300.105
300.134
300.173
300.222
300.286
300.366
300.467
300.593
300.748
300.937
301.168
301.447
301.782
302.183
302.658
303.219
300.06
300.063
300.073
300.088
300.11
300.14
300.179
300.231
300.297
300.38
300.485
300.615
300.775
300.972
301.211
301.499
301.846
302.261
302.754
303.339
300.062
300.066
300.075
300.091
300.113
300.144
300.185
300.238
300.306
300.392
300.499
300.632
300.797
300.998
301.243
301.538
301.893
302.316
302.819
303.416
300.063
300.067
300.077
300.093
300.116
300.148
300.189
300.243
300.313
300.4
300.509
300.645
300.812
301.016
301.264
301.564
301.923
302.351
302.858
303.459
300.602
300.68
300.757
300.831
300.899
300.96
301.012
301.053
301.082
301.099
301.103
301.095
301.077
301.05
301.017
300.982
300.948
300.92
300.901
300.896
300.626
300.706
300.786
300.863
300.935
300.999
301.053
301.096
301.127
301.144
301.149
301.14
301.121
301.092
301.057
301.02
300.984
300.953
300.933
300.927
300.681
300.769
300.856
300.94
301.019
301.09
301.15
301.199
301.233
301.252
301.257
301.247
301.225
301.193
301.153
301.11
301.069
301.034
301.01
301.002
300.768
300.867
300.966
301.063
301.153
301.235
301.306
301.362
301.402
301.425
301.43
301.418
301.392
301.353
301.306
301.255
301.205
301.162
301.133
301.123
300.885
301.001
301.117
301.232
301.339
301.437
301.521
301.589
301.637
301.664
301.67
301.656
301.623
301.576
301.517
301.455
301.393
301.34
301.303
301.289
301.033
301.171
301.311
301.448
301.579
301.698
301.801
301.884
301.943
301.976
301.983
301.965
301.924
301.864
301.792
301.713
301.636
301.569
301.522
301.502
301.212
301.378
301.548
301.715
301.875
302.021
302.148
302.25
302.324
302.365
302.374
302.35
302.299
302.224
302.132
302.033
301.936
301.851
301.79
301.763
301.422
301.622
301.828
302.033
302.229
302.41
302.567
302.694
302.785
302.836
302.847
302.817
302.752
302.657
302.542
302.416
302.293
302.186
302.107
302.072
301.66
301.902
302.151
302.401
302.643
302.866
303.061
303.218
303.332
303.396
303.409
303.371
303.289
303.169
303.023
302.865
302.71
302.574
302.474
302.428
301.924
302.214
302.516
302.821
303.116
303.391
303.632
303.828
303.969
304.048
304.063
304.016
303.912
303.762
303.578
303.38
303.185
303.014
302.888
302.827
302.21
302.556
302.919
303.287
303.648
303.985
304.282
304.524
304.698
304.796
304.814
304.755
304.625
304.436
304.207
303.959
303.715
303.502
303.344
303.266
302.512
302.92
303.353
303.796
304.233
304.644
305.008
305.306
305.52
305.641
305.663
305.588
305.426
305.191
304.906
304.597
304.295
304.031
303.835
303.736
302.82
303.297
303.808
304.337
304.864
305.363
305.806
306.17
306.432
306.579
306.605
306.512
306.311
306.021
305.668
305.287
304.914
304.589
304.348
304.226
303.125
303.675
304.272
304.897
305.527
306.129
306.666
307.107
307.425
307.603
307.633
307.519
307.272
306.915
306.481
306.013
305.558
305.163
304.87
304.721
303.412
304.038
304.726
305.458
306.205
306.926
307.572
308.102
308.482
308.695
308.73
308.591
308.291
307.857
307.328
306.757
306.205
305.729
305.38
305.201
303.668
304.366
305.148
305.995
306.873
307.729
308.499
309.128
309.578
309.827
309.867
309.701
309.343
308.821
308.182
307.492
306.829
306.264
305.854
305.645
303.878
304.641
305.512
306.476
307.497
308.507
309.415
310.149
310.669
310.954
310.999
310.806
310.388
309.772
309.008
308.18
307.393
306.736
306.267
306.03
304.031
304.846
305.792
306.866
308.036
309.217
310.269
311.106
311.69
312.008
312.056
311.84
311.367
310.659
309.762
308.776
307.859
307.113
306.593
306.335
304.125
304.97
305.969
307.13
308.438
309.805
310.994
311.915
312.545
312.884
312.936
312.704
312.192
311.409
310.385
309.224
308.183
307.367
306.815
306.547
304.171
305.026
306.045
307.25
308.65
310.197
311.478
312.441
313.09
313.438
313.492
313.255
312.728
311.908
310.799
309.466
308.341
307.494
306.933
306.665
)
;

boundaryField
{
    inlet
    {
        type            zeroGradient;
    }
    outlet
    {
        type            zeroGradient;
    }
    fixedWalls
    {
        type            zeroGradient;
    }
    defaultFaces
    {
        type            empty;
    }
}


// ************************************************************************* //
