/*--------------------------------*- C++ -*----------------------------------*\
| =========                 |                                                 |
| \\      /  F ield         | OpenFOAM: The Open Source CFD Toolbox           |
|  \\    /   O peration     | Version:  2.3.x                                 |
|   \\  /    A nd           | Web:      www.OpenFOAM.org                      |
|    \\/     M anipulation  |                                                 |
\*---------------------------------------------------------------------------*/
FoamFile
{
    version     2.0;
    format      ascii;
    class       volScalarField;
    location    "7";
    object      T;
}
// * * * * * * * * * * * * * * * * * * * * * * * * * * * * * * * * * * * * * //

dimensions      [0 0 0 1 0 0 0];

internalField   nonuniform List<scalar> 
800
(
300
300.001
300.001
300.001
300.001
300.002
300.002
300.003
300.004
300.006
300.008
300.01
300.014
300.018
300.024
300.031
300.041
300.056
300.081
300.143
300.001
300.002
300.002
300.003
300.004
300.005
300.007
300.009
300.013
300.017
300.024
300.031
300.042
300.055
300.072
300.093
300.121
300.159
300.213
300.295
300.002
300.003
300.003
300.004
300.006
300.008
300.012
300.016
300.022
300.03
300.04
300.053
300.071
300.093
300.121
300.157
300.202
300.259
300.332
300.425
300.003
300.004
300.005
300.006
300.009
300.012
300.017
300.023
300.031
300.042
300.057
300.077
300.102
300.134
300.174
300.225
300.287
300.365
300.458
300.569
300.005
300.005
300.006
300.008
300.011
300.016
300.022
300.03
300.041
300.056
300.076
300.102
300.136
300.179
300.233
300.301
300.384
300.485
300.604
300.743
300.006
300.006
300.008
300.01
300.014
300.02
300.028
300.038
300.053
300.072
300.097
300.131
300.174
300.23
300.3
300.388
300.495
300.626
300.779
300.958
300.007
300.008
300.01
300.013
300.017
300.024
300.034
300.047
300.065
300.089
300.12
300.162
300.217
300.287
300.376
300.487
300.625
300.792
300.99
301.22
300.008
300.009
300.011
300.015
300.021
300.029
300.04
300.056
300.078
300.107
300.145
300.197
300.264
300.35
300.461
300.6
300.774
300.985
301.238
301.535
300.01
300.011
300.013
300.018
300.024
300.034
300.047
300.066
300.091
300.126
300.172
300.234
300.314
300.419
300.555
300.726
300.941
301.206
301.527
301.907
300.011
300.012
300.015
300.02
300.028
300.039
300.054
300.076
300.106
300.146
300.2
300.272
300.368
300.493
300.655
300.863
301.125
301.452
301.852
302.334
300.012
300.014
300.017
300.023
300.031
300.044
300.062
300.086
300.12
300.166
300.228
300.312
300.423
300.568
300.759
301.005
301.318
301.714
302.206
302.806
300.014
300.015
300.019
300.025
300.035
300.049
300.069
300.096
300.134
300.186
300.256
300.35
300.476
300.642
300.861
301.146
301.513
301.982
302.574
303.309
300.015
300.017
300.021
300.028
300.039
300.054
300.076
300.106
300.148
300.205
300.282
300.386
300.526
300.711
300.956
301.277
301.696
302.238
302.932
303.812
300.016
300.018
300.023
300.03
300.042
300.058
300.082
300.115
300.16
300.222
300.306
300.419
300.57
300.771
301.038
301.39
301.852
302.458
303.247
304.27
300.018
300.02
300.024
300.033
300.045
300.063
300.088
300.123
300.171
300.237
300.326
300.446
300.606
300.819
301.101
301.473
301.965
302.616
303.477
304.62
300.019
300.021
300.026
300.035
300.048
300.066
300.093
300.13
300.18
300.249
300.342
300.467
300.632
300.852
301.141
301.521
302.022
302.686
303.576
304.783
300.02
300.022
300.027
300.036
300.05
300.07
300.097
300.136
300.188
300.259
300.355
300.482
300.65
300.871
301.159
301.532
302.017
302.653
303.502
304.672
300.021
300.023
300.029
300.038
300.052
300.072
300.101
300.14
300.194
300.267
300.365
300.493
300.662
300.88
301.159
301.514
301.961
302.524
303.245
304.217
300.022
300.024
300.03
300.039
300.054
300.075
300.104
300.145
300.2
300.274
300.372
300.502
300.669
300.884
301.153
301.484
301.882
302.344
302.861
303.434
300.022
300.025
300.031
300.041
300.055
300.077
300.107
300.148
300.204
300.279
300.379
300.509
300.677
300.889
301.152
301.468
301.829
302.207
302.524
302.574
300.343
300.484
300.596
300.692
300.775
300.847
300.904
300.947
300.972
300.978
300.963
300.929
300.873
300.799
300.707
300.6
300.48
300.35
300.213
300.072
300.422
300.543
300.653
300.753
300.843
300.92
300.984
301.032
301.06
301.068
301.054
301.016
300.957
300.875
300.775
300.658
300.526
300.384
300.234
300.079
300.54
300.66
300.778
300.891
300.995
301.088
301.166
301.225
301.261
301.273
301.257
301.214
301.144
301.047
300.927
300.787
300.63
300.459
300.28
300.095
300.696
300.833
300.973
301.111
301.242
301.36
301.461
301.539
301.588
301.605
301.588
301.535
301.446
301.325
301.173
300.995
300.796
300.581
300.354
300.12
300.9
301.069
301.246
301.423
301.595
301.752
301.887
301.993
302.062
302.088
302.068
302
301.886
301.727
301.528
301.296
301.036
300.755
300.46
300.156
301.158
301.377
301.608
301.843
302.073
302.286
302.471
302.617
302.713
302.752
302.729
302.641
302.49
302.28
302.016
301.708
301.364
300.994
300.605
300.205
301.481
301.768
302.075
302.39
302.701
302.992
303.246
303.448
303.584
303.642
303.615
303.5
303.299
303.018
302.666
302.256
301.799
301.309
300.796
300.269
301.875
302.254
302.662
303.085
303.507
303.904
304.255
304.535
304.726
304.81
304.779
304.628
304.361
303.985
303.516
302.969
302.364
301.717
301.042
300.352
302.348
302.844
303.385
303.954
304.524
305.067
305.549
305.938
306.204
306.327
306.291
306.093
305.737
305.235
304.609
303.883
303.084
302.235
301.355
300.457
302.899
303.545
304.259
305.018
305.79
306.53
307.192
307.729
308.1
308.275
308.236
307.976
307.502
306.834
306
305.039
303.988
302.881
301.742
300.587
303.523
304.355
305.291
306.302
307.342
308.35
309.257
309.996
310.511
310.761
310.719
310.378
309.749
308.858
307.75
306.48
305.104
303.671
302.213
300.745
304.203
305.264
306.481
307.82
309.219
310.591
311.833
312.849
313.561
313.911
313.869
313.424
312.589
311.404
309.931
308.254
306.458
304.617
302.77
300.93
304.907
306.239
307.806
309.573
311.456
313.326
315.03
316.423
317.4
317.887
317.847
317.267
316.163
314.585
312.624
310.404
308.066
305.715
303.406
301.139
305.578
307.219
309.216
311.538
314.078
316.642
318.984
320.89
322.218
322.885
322.851
322.102
320.649
318.548
315.922
312.97
309.919
306.939
304.095
301.362
306.131
308.102
310.604
313.642
317.088
320.641
323.88
326.478
328.258
329.151
329.129
328.174
326.279
323.485
319.942
315.965
311.964
308.212
304.779
301.578
306.441
308.717
311.778
315.721
320.443
325.471
329.991
333.498
335.829
336.981
336.975
335.792
333.37
329.674
324.839
319.358
314.056
309.376
305.345
301.746
306.345
308.809
312.394
317.424
323.984
331.385
337.766
342.404
345.319
346.717
346.731
345.342
342.373
337.57
330.874
322.996
315.861
310.127
305.6
301.804
305.654
308.023
311.883
318.011
327.214
338.966
348.031
353.856
357.192
358.711
358.744
357.276
353.933
347.991
338.633
326.378
316.656
309.934
305.26
301.662
304.19
305.954
309.386
315.932
328.466
349.964
362.415
368.778
371.912
373.23
373.272
372.026
368.928
362.52
349.854
327.829
314.922
307.992
303.984
301.231
301.819
302.349
303.984
308.229
321.387
370.821
383.945
388.133
389.708
390.291
390.312
389.768
388.224
384.048
370.873
321.061
307.808
303.452
301.582
300.481
)
;

boundaryField
{
    inlet
    {
        type            fixedValue;
        value           nonuniform List<scalar> 
20
(
300
300
300
300
300
400
400
400
400
400
400
400
400
400
400
300
300
300
300
300
)
;
    }
    outlet
    {
        type            zeroGradient;
    }
    fixedWalls
    {
        type            inletOutlet;
        inletValue      uniform 300;
        value           nonuniform List<scalar> 
80
(
300
300.001
300.002
300.003
300.005
300.006
300.007
300.008
300.01
300.011
300.012
300.014
300.015
300.016
300.018
300.019
300.02
300.021
300.022
300.022
300
300
300
300
300
300
300
300
300
300
300
300
300
300
300
300
300
300
300
300
300.343
300.484
300.596
300.692
300.775
300.847
300.904
300.947
300.972
300.978
300.963
300.929
300.873
300.799
300.707
300.6
300.48
300.35
300.213
300.072
300
300
300
300
300
300
300
300
300
300
300
300
300
300
300
300
300
300
300
300
)
;
    }
    defaultFaces
    {
        type            empty;
    }
}


// ************************************************************************* //
