/*--------------------------------*- C++ -*----------------------------------*\
| =========                 |                                                 |
| \\      /  F ield         | OpenFOAM: The Open Source CFD Toolbox           |
|  \\    /   O peration     | Version:  2.3.x                                 |
|   \\  /    A nd           | Web:      www.OpenFOAM.org                      |
|    \\/     M anipulation  |                                                 |
\*---------------------------------------------------------------------------*/
FoamFile
{
    version     2.0;
    format      ascii;
    class       volScalarField;
    location    "7";
    object      Ts;
}
// * * * * * * * * * * * * * * * * * * * * * * * * * * * * * * * * * * * * * //

dimensions      [0 0 0 1 0 0 0];

internalField   nonuniform List<scalar> 
800
(
300.002
300.002
300.003
300.004
300.005
300.006
300.008
300.011
300.014
300.019
300.024
300.031
300.04
300.051
300.063
300.079
300.096
300.117
300.141
300.168
300.002
300.002
300.003
300.004
300.005
300.006
300.008
300.011
300.015
300.019
300.025
300.033
300.042
300.053
300.067
300.083
300.102
300.125
300.15
300.178
300.002
300.003
300.003
300.004
300.005
300.007
300.009
300.012
300.016
300.022
300.028
300.037
300.047
300.06
300.076
300.094
300.116
300.142
300.171
300.203
300.003
300.003
300.004
300.004
300.006
300.008
300.011
300.014
300.019
300.025
300.033
300.043
300.055
300.071
300.089
300.112
300.138
300.169
300.204
300.243
300.003
300.003
300.004
300.005
300.007
300.009
300.012
300.017
300.022
300.03
300.039
300.051
300.066
300.085
300.108
300.135
300.168
300.206
300.249
300.298
300.004
300.004
300.005
300.006
300.008
300.011
300.015
300.02
300.026
300.035
300.047
300.061
300.08
300.103
300.131
300.165
300.206
300.254
300.308
300.37
300.004
300.005
300.005
300.007
300.009
300.013
300.017
300.023
300.031
300.042
300.056
300.074
300.096
300.125
300.159
300.202
300.253
300.312
300.381
300.459
300.005
300.005
300.006
300.008
300.011
300.015
300.02
300.027
300.037
300.05
300.067
300.088
300.115
300.15
300.193
300.245
300.308
300.382
300.469
300.567
300.005
300.006
300.007
300.009
300.013
300.017
300.023
300.032
300.043
300.059
300.078
300.104
300.137
300.179
300.23
300.294
300.371
300.463
300.571
300.694
300.006
300.007
300.008
300.011
300.014
300.02
300.027
300.037
300.05
300.068
300.091
300.122
300.161
300.21
300.272
300.349
300.442
300.555
300.687
300.839
300.007
300.008
300.009
300.012
300.016
300.022
300.031
300.042
300.058
300.078
300.105
300.14
300.186
300.244
300.317
300.408
300.52
300.655
300.815
301.002
300.008
300.009
300.01
300.014
300.018
300.025
300.035
300.048
300.065
300.088
300.119
300.16
300.212
300.279
300.364
300.471
300.602
300.762
300.953
301.178
300.009
300.01
300.012
300.015
300.02
300.028
300.039
300.053
300.073
300.099
300.134
300.179
300.239
300.315
300.412
300.534
300.686
300.872
301.096
301.362
300.01
300.01
300.013
300.017
300.022
300.031
300.042
300.058
300.08
300.109
300.148
300.199
300.265
300.35
300.459
300.597
300.769
300.981
301.239
301.548
300.01
300.011
300.014
300.018
300.024
300.033
300.046
300.064
300.087
300.119
300.161
300.217
300.289
300.383
300.503
300.655
300.847
301.084
301.375
301.727
300.011
300.012
300.015
300.019
300.026
300.036
300.05
300.068
300.094
300.128
300.174
300.233
300.312
300.413
300.543
300.708
300.917
301.176
301.497
301.888
300.012
300.013
300.016
300.021
300.028
300.038
300.053
300.073
300.1
300.136
300.185
300.248
300.332
300.439
300.578
300.754
300.976
301.254
301.599
302.024
300.012
300.014
300.017
300.022
300.029
300.04
300.056
300.077
300.105
300.143
300.194
300.261
300.348
300.461
300.606
300.791
301.024
301.315
301.678
302.126
300.013
300.014
300.017
300.023
300.031
300.042
300.058
300.08
300.11
300.149
300.202
300.271
300.362
300.479
300.629
300.819
301.059
301.36
301.733
302.194
300.014
300.015
300.018
300.024
300.032
300.044
300.06
300.083
300.113
300.154
300.208
300.279
300.372
300.492
300.645
300.839
301.084
301.389
301.768
302.234
300.197
300.228
300.259
300.289
300.317
300.343
300.365
300.383
300.395
300.402
300.403
300.399
300.39
300.377
300.361
300.344
300.328
300.314
300.306
300.304
300.209
300.242
300.275
300.307
300.338
300.365
300.389
300.408
300.422
300.429
300.43
300.426
300.416
300.401
300.384
300.365
300.347
300.333
300.323
300.321
300.239
300.276
300.314
300.351
300.387
300.419
300.447
300.47
300.486
300.494
300.496
300.49
300.478
300.46
300.44
300.417
300.396
300.378
300.366
300.363
300.286
300.33
300.377
300.423
300.466
300.507
300.542
300.57
300.59
300.6
300.602
300.595
300.579
300.557
300.531
300.502
300.475
300.452
300.436
300.431
300.351
300.408
300.466
300.524
300.58
300.632
300.677
300.713
300.739
300.753
300.755
300.745
300.725
300.696
300.661
300.623
300.587
300.556
300.535
300.528
300.437
300.509
300.584
300.659
300.732
300.799
300.858
300.905
300.939
300.957
300.96
300.947
300.92
300.881
300.835
300.785
300.737
300.695
300.666
300.655
300.545
300.637
300.734
300.831
300.926
301.014
301.091
301.154
301.198
301.222
301.226
301.208
301.172
301.121
301.059
300.993
300.928
300.872
300.832
300.816
300.676
300.794
300.918
301.045
301.168
301.283
301.384
301.466
301.525
301.557
301.561
301.538
301.49
301.422
301.34
301.251
301.165
301.09
301.036
301.013
300.831
300.982
301.14
301.303
301.463
301.612
301.745
301.852
301.929
301.971
301.976
301.946
301.882
301.792
301.683
301.566
301.452
301.352
301.281
301.249
301.011
301.2
301.402
301.609
301.815
302.008
302.179
302.319
302.419
302.473
302.48
302.44
302.357
302.238
302.096
301.942
301.792
301.662
301.567
301.523
301.214
301.449
301.702
301.964
302.226
302.474
302.694
302.874
303.003
303.073
303.082
303.029
302.921
302.767
302.582
302.382
302.187
302.018
301.894
301.835
301.436
301.724
302.038
302.367
302.697
303.011
303.292
303.521
303.686
303.776
303.787
303.719
303.579
303.381
303.142
302.885
302.635
302.418
302.259
302.182
301.671
302.021
302.404
302.811
303.223
303.618
303.972
304.263
304.472
304.585
304.598
304.511
304.333
304.081
303.776
303.449
303.131
302.855
302.653
302.554
301.911
302.327
302.791
303.287
303.796
304.288
304.731
305.094
305.354
305.496
305.511
305.402
305.178
304.859
304.475
304.062
303.663
303.318
303.066
302.941
302.145
302.631
303.181
303.779
304.4
305.006
305.553
306.002
306.322
306.495
306.513
306.378
306.101
305.705
305.225
304.71
304.214
303.789
303.481
303.327
302.359
302.915
303.555
304.264
305.013
305.751
306.418
306.963
307.349
307.557
307.578
307.415
307.078
306.593
306.002
305.367
304.759
304.245
303.876
303.692
302.54
303.16
303.887
304.711
305.6
306.49
307.292
307.941
308.395
308.638
308.662
308.47
308.071
307.49
306.773
305.998
305.265
304.657
304.228
304.015
302.676
303.347
304.149
305.083
306.119
307.179
308.126
308.875
309.393
309.665
309.692
309.475
309.02
308.345
307.493
306.557
305.692
304.993
304.511
304.276
302.763
303.465
304.32
305.341
306.516
307.763
308.846
309.678
310.241
310.535
310.564
310.33
309.834
309.082
308.1
306.987
305.995
305.224
304.708
304.462
302.808
303.522
304.399
305.465
306.733
308.16
309.336
310.211
310.793
311.095
311.125
310.885
310.373
309.582
308.514
307.227
306.149
305.344
304.817
304.571
)
;

boundaryField
{
    inlet
    {
        type            zeroGradient;
    }
    outlet
    {
        type            zeroGradient;
    }
    fixedWalls
    {
        type            zeroGradient;
    }
    defaultFaces
    {
        type            empty;
    }
}


// ************************************************************************* //
