/*--------------------------------*- C++ -*----------------------------------*\
| =========                 |                                                 |
| \\      /  F ield         | OpenFOAM: The Open Source CFD Toolbox           |
|  \\    /   O peration     | Version:  2.3.x                                 |
|   \\  /    A nd           | Web:      www.OpenFOAM.org                      |
|    \\/     M anipulation  |                                                 |
\*---------------------------------------------------------------------------*/
FoamFile
{
    version     2.0;
    format      ascii;
    class       volScalarField;
    location    "8";
    object      T;
}
// * * * * * * * * * * * * * * * * * * * * * * * * * * * * * * * * * * * * * //

dimensions      [0 0 0 1 0 0 0];

internalField   nonuniform List<scalar> 
800
(
300.001
300.001
300.001
300.002
300.002
300.003
300.004
300.005
300.007
300.009
300.012
300.016
300.021
300.027
300.035
300.045
300.059
300.079
300.116
300.202
300.003
300.003
300.004
300.005
300.006
300.009
300.012
300.016
300.021
300.028
300.037
300.048
300.063
300.082
300.105
300.135
300.173
300.225
300.3
300.414
300.005
300.005
300.006
300.008
300.011
300.014
300.019
300.026
300.035
300.047
300.062
300.081
300.106
300.137
300.176
300.224
300.286
300.363
300.461
300.587
300.007
300.007
300.009
300.011
300.015
300.02
300.028
300.037
300.05
300.067
300.088
300.116
300.151
300.195
300.25
300.318
300.401
300.503
300.626
300.771
300.009
300.01
300.012
300.015
300.02
300.027
300.036
300.049
300.066
300.088
300.116
300.153
300.199
300.257
300.33
300.419
300.527
300.657
300.809
300.985
300.011
300.012
300.014
300.019
300.025
300.033
300.045
300.061
300.082
300.11
300.146
300.192
300.251
300.325
300.417
300.531
300.668
300.831
301.023
301.241
300.013
300.014
300.017
300.022
300.03
300.04
300.055
300.074
300.1
300.134
300.178
300.235
300.308
300.399
300.514
300.655
300.827
301.031
301.271
301.547
300.015
300.017
300.02
300.026
300.035
300.048
300.065
300.088
300.118
300.159
300.212
300.28
300.368
300.48
300.62
300.793
301.004
301.259
301.559
301.907
300.018
300.019
300.024
300.03
300.041
300.055
300.075
300.102
300.138
300.185
300.247
300.328
300.433
300.566
300.734
300.943
301.2
301.513
301.885
302.322
300.02
300.022
300.027
300.034
300.046
300.063
300.085
300.116
300.157
300.212
300.284
300.378
300.499
300.655
300.853
301.101
301.41
301.789
302.246
302.788
300.022
300.025
300.03
300.039
300.052
300.07
300.095
300.13
300.177
300.238
300.32
300.427
300.566
300.745
300.973
301.263
301.627
302.078
302.63
303.294
300.025
300.027
300.033
300.043
300.057
300.077
300.105
300.144
300.195
300.264
300.355
300.474
300.63
300.831
301.09
301.421
301.84
302.366
303.021
303.822
300.027
300.03
300.036
300.046
300.062
300.084
300.115
300.157
300.213
300.288
300.387
300.518
300.688
300.91
301.196
301.565
302.036
302.635
303.393
304.339
300.029
300.032
300.039
300.05
300.067
300.091
300.124
300.169
300.229
300.309
300.416
300.556
300.739
300.977
301.286
301.684
302.199
302.861
303.711
304.798
300.031
300.034
300.041
300.053
300.071
300.096
300.131
300.179
300.243
300.328
300.44
300.587
300.779
301.029
301.352
301.77
302.312
303.015
303.933
305.134
300.033
300.036
300.044
300.056
300.075
300.102
300.138
300.188
300.255
300.343
300.459
300.611
300.809
301.064
301.393
301.816
302.362
303.074
304.011
305.267
300.035
300.038
300.046
300.059
300.078
300.106
300.144
300.196
300.264
300.355
300.474
300.629
300.828
301.084
301.409
301.821
302.346
303.021
303.906
305.109
300.036
300.04
300.048
300.061
300.081
300.11
300.149
300.202
300.272
300.365
300.485
300.641
300.84
301.091
301.406
301.796
302.276
302.868
303.611
304.595
300.037
300.041
300.049
300.063
300.084
300.113
300.153
300.207
300.279
300.372
300.494
300.65
300.847
301.094
301.396
301.759
302.184
302.664
303.186
303.744
300.039
300.042
300.051
300.065
300.086
300.116
300.157
300.211
300.284
300.379
300.501
300.658
300.855
301.098
301.392
301.737
302.122
302.512
302.818
302.822
300.484
300.679
300.834
300.964
301.076
301.169
301.243
301.297
301.327
301.331
301.309
301.26
301.184
301.083
300.959
300.814
300.652
300.477
300.291
300.099
300.589
300.756
300.905
301.038
301.156
301.256
301.338
301.397
301.431
301.437
301.415
301.363
301.281
301.173
301.038
300.882
300.707
300.517
300.316
300.108
300.741
300.901
301.056
301.203
301.336
301.453
301.549
301.621
301.663
301.674
301.65
301.591
301.497
301.37
301.214
301.031
300.826
300.604
300.369
300.126
300.936
301.111
301.288
301.461
301.623
301.767
301.889
301.98
302.036
302.053
302.026
301.956
301.842
301.687
301.494
301.269
301.017
300.743
300.454
300.154
301.181
301.391
301.607
301.822
302.027
302.214
302.372
302.494
302.57
302.596
302.566
302.479
302.335
302.139
301.894
301.608
301.288
300.941
300.574
300.195
301.485
301.748
302.023
302.299
302.567
302.813
303.024
303.188
303.294
303.332
303.298
303.188
303.004
302.751
302.435
302.066
301.653
301.206
300.736
300.25
301.856
302.192
302.547
302.909
303.263
303.591
303.875
304.098
304.244
304.302
304.262
304.123
303.885
303.555
303.144
302.664
302.129
301.552
300.946
300.321
302.3
302.733
303.195
303.671
304.14
304.579
304.963
305.268
305.471
305.555
305.51
305.331
305.022
304.592
304.055
303.43
302.736
301.992
301.213
300.411
302.821
303.377
303.978
304.604
305.228
305.817
306.337
306.752
307.033
307.155
307.105
306.876
306.474
305.912
305.211
304.398
303.499
302.542
301.545
300.523
303.416
304.128
304.907
305.729
306.558
307.35
308.052
308.618
309.005
309.181
309.126
308.832
308.309
307.574
306.659
305.602
304.443
303.218
301.951
300.66
304.078
304.98
305.985
307.063
308.165
309.227
310.178
310.949
311.481
311.73
311.671
311.296
310.613
309.652
308.457
307.085
305.594
304.034
302.438
300.823
304.786
305.919
307.207
308.616
310.08
311.508
312.796
313.845
314.574
314.925
314.865
314.383
313.493
312.234
310.671
308.887
306.972
304.997
303.007
301.013
305.504
306.908
308.547
310.384
312.332
314.259
316.009
317.437
318.43
318.918
318.86
318.243
317.084
315.431
313.377
311.051
308.59
306.105
303.649
301.224
306.173
307.883
309.949
312.339
314.942
317.561
319.949
321.889
323.234
323.901
323.85
323.064
321.556
319.382
316.666
313.608
310.438
307.325
304.337
301.448
306.705
308.738
311.304
314.404
317.909
321.514
324.795
327.424
329.221
330.114
330.075
329.086
327.139
324.276
320.649
316.572
312.459
308.582
305.011
301.66
306.974
309.302
312.416
316.414
321.187
326.261
330.819
334.354
336.699
337.851
337.83
336.616
334.148
330.39
325.479
319.909
314.506
309.713
305.557
301.823
306.816
309.316
312.942
318.015
324.616
332.055
338.467
343.128
346.056
347.453
347.455
346.04
343.032
338.177
331.417
323.465
316.245
310.416
305.784
301.87
306.04
308.426
312.311
318.469
327.701
339.482
348.57
354.413
357.757
359.276
359.3
357.811
354.439
348.458
339.051
326.74
316.954
310.159
305.405
301.716
304.467
306.224
309.664
316.226
328.778
350.293
362.758
369.133
372.272
373.591
373.626
372.367
369.251
362.818
350.122
328.062
315.115
308.139
304.08
301.268
301.948
302.452
304.085
308.334
321.498
370.939
384.068
388.259
389.836
390.419
390.438
389.89
388.339
384.155
370.969
321.145
307.879
303.506
301.619
300.496
)
;

boundaryField
{
    inlet
    {
        type            fixedValue;
        value           nonuniform List<scalar> 
20
(
300
300
300
300
300
400
400
400
400
400
400
400
400
400
400
300
300
300
300
300
)
;
    }
    outlet
    {
        type            zeroGradient;
    }
    fixedWalls
    {
        type            inletOutlet;
        inletValue      uniform 300;
        value           nonuniform List<scalar> 
80
(
300.001
300.003
300.005
300.007
300.009
300.011
300.013
300.015
300.018
300.02
300.022
300.025
300.027
300.029
300.031
300.033
300.035
300.036
300.037
300.039
300
300
300
300
300
300
300
300
300
300
300
300
300
300
300
300
300
300
300
300
300.484
300.679
300.834
300.964
301.076
301.169
301.243
301.297
301.327
301.331
301.309
301.26
301.184
301.083
300.959
300.814
300.652
300.477
300.291
300.099
300
300
300
300
300
300
300
300
300
300
300
300
300
300
300
300
300
300
300
300
)
;
    }
    defaultFaces
    {
        type            empty;
    }
}


// ************************************************************************* //
