/*--------------------------------*- C++ -*----------------------------------*\
| =========                 |                                                 |
| \\      /  F ield         | OpenFOAM: The Open Source CFD Toolbox           |
|  \\    /   O peration     | Version:  2.3.x                                 |
|   \\  /    A nd           | Web:      www.OpenFOAM.org                      |
|    \\/     M anipulation  |                                                 |
\*---------------------------------------------------------------------------*/
FoamFile
{
    version     2.0;
    format      ascii;
    class       volScalarField;
    location    "8";
    object      Ts;
}
// * * * * * * * * * * * * * * * * * * * * * * * * * * * * * * * * * * * * * //

dimensions      [0 0 0 1 0 0 0];

internalField   nonuniform List<scalar> 
800
(
300.005
300.005
300.006
300.007
300.009
300.012
300.016
300.02
300.026
300.034
300.043
300.055
300.069
300.086
300.106
300.13
300.157
300.189
300.224
300.264
300.005
300.005
300.006
300.008
300.01
300.012
300.016
300.021
300.027
300.035
300.045
300.057
300.072
300.09
300.111
300.137
300.166
300.199
300.237
300.278
300.005
300.006
300.007
300.008
300.01
300.013
300.017
300.023
300.03
300.039
300.05
300.063
300.08
300.1
300.124
300.152
300.185
300.223
300.265
300.312
300.006
300.006
300.007
300.009
300.011
300.015
300.02
300.026
300.034
300.044
300.056
300.072
300.092
300.115
300.143
300.176
300.215
300.259
300.309
300.364
300.007
300.007
300.008
300.01
300.013
300.017
300.023
300.03
300.039
300.051
300.066
300.084
300.107
300.135
300.169
300.209
300.255
300.308
300.368
300.435
300.007
300.008
300.009
300.012
300.015
300.02
300.026
300.034
300.045
300.059
300.077
300.099
300.127
300.16
300.201
300.249
300.306
300.371
300.444
300.526
300.008
300.009
300.011
300.013
300.017
300.023
300.03
300.04
300.053
300.069
300.091
300.117
300.15
300.19
300.239
300.298
300.366
300.446
300.537
300.638
300.01
300.01
300.012
300.015
300.02
300.026
300.035
300.046
300.062
300.081
300.106
300.137
300.176
300.225
300.283
300.354
300.438
300.535
300.646
300.771
300.011
300.012
300.014
300.017
300.023
300.03
300.04
300.053
300.071
300.094
300.123
300.16
300.206
300.263
300.333
300.417
300.518
300.636
300.772
300.925
300.012
300.013
300.016
300.02
300.026
300.034
300.046
300.061
300.081
300.107
300.141
300.184
300.238
300.305
300.387
300.487
300.607
300.748
300.912
301.098
300.014
300.015
300.017
300.022
300.029
300.038
300.051
300.069
300.092
300.122
300.16
300.209
300.271
300.349
300.444
300.561
300.702
300.869
301.065
301.289
300.015
300.016
300.019
300.024
300.032
300.043
300.057
300.077
300.103
300.136
300.18
300.235
300.306
300.394
300.504
300.638
300.801
300.997
301.226
301.492
300.017
300.018
300.021
300.027
300.035
300.047
300.063
300.085
300.113
300.151
300.199
300.261
300.34
300.439
300.563
300.716
300.902
301.126
301.391
301.702
300.018
300.019
300.023
300.029
300.038
300.051
300.069
300.093
300.124
300.165
300.218
300.286
300.373
300.483
300.62
300.791
300.999
301.252
301.554
301.91
300.019
300.021
300.025
300.032
300.041
300.055
300.074
300.1
300.134
300.178
300.236
300.31
300.404
300.524
300.674
300.86
301.09
301.37
301.707
302.108
300.021
300.022
300.027
300.034
300.044
300.059
300.08
300.107
300.143
300.19
300.252
300.331
300.433
300.561
300.722
300.923
301.171
301.474
301.843
302.285
300.022
300.024
300.028
300.036
300.047
300.063
300.084
300.113
300.151
300.201
300.266
300.35
300.457
300.593
300.763
300.976
301.239
301.562
301.955
302.431
300.023
300.025
300.03
300.038
300.049
300.066
300.088
300.118
300.158
300.211
300.279
300.366
300.478
300.619
300.797
301.018
301.293
301.629
302.041
302.541
300.024
300.026
300.031
300.039
300.051
300.068
300.092
300.123
300.164
300.218
300.288
300.379
300.494
300.64
300.823
301.051
301.332
301.678
302.1
302.613
300.025
300.027
300.032
300.04
300.053
300.07
300.094
300.126
300.169
300.224
300.296
300.388
300.506
300.655
300.841
301.073
301.359
301.71
302.137
302.654
300.308
300.352
300.397
300.441
300.481
300.518
300.549
300.574
300.591
300.601
300.603
300.597
300.585
300.567
300.546
300.523
300.501
300.482
300.471
300.468
300.324
300.371
300.418
300.464
300.507
300.546
300.579
300.606
300.624
300.635
300.637
300.631
300.617
300.598
300.575
300.55
300.526
300.506
300.493
300.49
300.362
300.415
300.468
300.52
300.569
300.613
300.652
300.682
300.704
300.716
300.718
300.711
300.695
300.673
300.645
300.616
300.588
300.564
300.548
300.544
300.423
300.485
300.548
300.61
300.669
300.722
300.769
300.806
300.832
300.847
300.849
300.84
300.821
300.793
300.759
300.723
300.687
300.657
300.637
300.631
300.507
300.582
300.659
300.736
300.809
300.876
300.934
300.98
301.013
301.032
301.035
301.023
300.998
300.963
300.919
300.873
300.828
300.789
300.762
300.752
300.615
300.709
300.805
300.901
300.993
301.078
301.152
301.211
301.254
301.277
301.281
301.266
301.233
301.187
301.131
301.07
301.011
300.961
300.925
300.911
300.748
300.866
300.987
301.109
301.226
301.334
301.429
301.505
301.56
301.59
301.595
301.575
301.533
301.472
301.399
301.32
301.243
301.176
301.128
301.109
300.908
301.055
301.208
301.362
301.511
301.649
301.771
301.869
301.939
301.978
301.984
301.958
301.903
301.824
301.729
301.626
301.525
301.438
301.375
301.347
301.094
301.277
301.468
301.662
301.852
302.028
302.183
302.309
302.399
302.449
302.457
302.423
302.351
302.249
302.126
301.992
301.862
301.748
301.665
301.628
301.306
301.532
301.77
302.013
302.251
302.475
302.672
302.833
302.948
303.011
303.021
302.977
302.885
302.753
302.594
302.422
302.254
302.107
302
301.95
301.541
301.816
302.11
302.412
302.711
302.992
303.241
303.445
303.591
303.671
303.683
303.626
303.508
303.34
303.136
302.916
302.702
302.514
302.377
302.311
301.793
302.126
302.485
302.857
303.228
303.579
303.892
304.147
304.331
304.432
304.446
304.374
304.224
304.01
303.752
303.473
303.201
302.965
302.79
302.705
302.057
302.455
302.887
303.34
303.797
304.232
304.621
304.94
305.169
305.295
305.312
305.221
305.032
304.763
304.437
304.087
303.746
303.45
303.231
303.123
302.323
302.79
303.304
303.851
304.407
304.942
305.422
305.815
306.098
306.252
306.273
306.16
305.925
305.589
305.183
304.746
304.323
303.956
303.687
303.552
302.578
303.118
303.721
304.372
305.042
305.693
306.279
306.76
307.103
307.291
307.315
307.176
306.888
306.474
305.972
305.433
304.912
304.466
304.14
303.976
302.809
303.42
304.115
304.878
305.678
306.463
307.171
307.749
308.16
308.383
308.411
308.244
307.897
307.394
306.781
306.121
305.489
304.953
304.567
304.372
303.002
303.678
304.461
305.34
306.281
307.219
308.063
308.746
309.226
309.484
309.515
309.32
308.912
308.314
307.575
306.776
306.019
305.389
304.943
304.72
303.145
303.872
304.731
305.72
306.809
307.918
308.906
309.691
310.234
310.523
310.557
310.338
309.874
309.182
308.309
307.35
306.462
305.742
305.244
304.999
303.236
303.993
304.905
305.981
307.209
308.504
309.629
310.496
311.085
311.396
311.433
311.197
310.692
309.925
308.923
307.788
306.774
305.983
305.451
305.196
303.281
304.05
304.983
306.104
307.425
308.9
310.117
311.027
311.635
311.954
311.992
311.751
311.231
310.425
309.337
308.029
306.93
306.106
305.564
305.309
)
;

boundaryField
{
    inlet
    {
        type            zeroGradient;
    }
    outlet
    {
        type            zeroGradient;
    }
    fixedWalls
    {
        type            zeroGradient;
    }
    defaultFaces
    {
        type            empty;
    }
}


// ************************************************************************* //
