/*--------------------------------*- C++ -*----------------------------------*\
| =========                 |                                                 |
| \\      /  F ield         | OpenFOAM: The Open Source CFD Toolbox           |
|  \\    /   O peration     | Version:  2.3.x                                 |
|   \\  /    A nd           | Web:      www.OpenFOAM.org                      |
|    \\/     M anipulation  |                                                 |
\*---------------------------------------------------------------------------*/
FoamFile
{
    version     2.0;
    format      ascii;
    class       volScalarField;
    location    "4";
    object      T;
}
// * * * * * * * * * * * * * * * * * * * * * * * * * * * * * * * * * * * * * //

dimensions      [0 0 0 1 0 0 0];

internalField   nonuniform List<scalar> 
800
(
300
300
300
300
300
300
300
300
300
300.001
300.001
300.001
300.002
300.002
300.003
300.005
300.006
300.009
300.013
300.024
300
300
300
300
300
300
300.001
300.001
300.001
300.002
300.003
300.004
300.005
300.007
300.01
300.014
300.019
300.026
300.036
300.051
300
300
300
300
300
300.001
300.001
300.001
300.002
300.003
300.004
300.006
300.009
300.013
300.018
300.025
300.034
300.045
300.061
300.08
300
300
300
300
300.001
300.001
300.001
300.002
300.003
300.005
300.007
300.01
300.014
300.02
300.028
300.038
300.052
300.069
300.091
300.118
300
300
300
300.001
300.001
300.001
300.002
300.003
300.004
300.006
300.01
300.014
300.02
300.028
300.04
300.055
300.075
300.1
300.132
300.171
300
300
300
300.001
300.001
300.002
300.003
300.004
300.006
300.009
300.013
300.019
300.028
300.039
300.056
300.077
300.106
300.142
300.188
300.245
300
300
300.001
300.001
300.001
300.002
300.003
300.005
300.008
300.012
300.017
300.025
300.037
300.053
300.076
300.106
300.146
300.198
300.264
300.346
300
300.001
300.001
300.001
300.002
300.003
300.004
300.006
300.01
300.015
300.022
300.033
300.049
300.07
300.101
300.142
300.198
300.271
300.365
300.482
300.001
300.001
300.001
300.001
300.002
300.003
300.005
300.008
300.012
300.019
300.028
300.042
300.062
300.091
300.131
300.187
300.263
300.364
300.495
300.66
300.001
300.001
300.001
300.002
300.003
300.004
300.006
300.01
300.015
300.023
300.035
300.053
300.078
300.115
300.168
300.241
300.342
300.478
300.657
300.887
300.001
300.001
300.001
300.002
300.003
300.005
300.007
300.012
300.018
300.028
300.042
300.064
300.096
300.142
300.209
300.303
300.434
300.613
300.853
301.166
300.001
300.001
300.001
300.002
300.004
300.006
300.009
300.014
300.021
300.033
300.05
300.076
300.115
300.171
300.253
300.371
300.536
300.766
301.08
301.496
300.001
300.001
300.002
300.003
300.004
300.006
300.01
300.016
300.024
300.038
300.058
300.088
300.134
300.201
300.299
300.441
300.643
300.929
301.325
301.864
300.001
300.001
300.002
300.003
300.004
300.007
300.011
300.018
300.027
300.043
300.066
300.1
300.152
300.229
300.342
300.507
300.746
301.087
301.57
302.243
300.001
300.001
300.002
300.003
300.005
300.008
300.012
300.019
300.03
300.047
300.072
300.111
300.168
300.253
300.379
300.564
300.833
301.223
301.784
302.586
300.001
300.002
300.002
300.003
300.005
300.009
300.013
300.021
300.033
300.051
300.078
300.12
300.181
300.272
300.407
300.604
300.892
301.312
301.927
302.825
300.001
300.002
300.002
300.004
300.006
300.009
300.014
300.023
300.035
300.054
300.083
300.127
300.191
300.286
300.424
300.625
300.915
301.338
301.956
302.878
300.002
300.002
300.003
300.004
300.006
300.01
300.015
300.024
300.037
300.057
300.087
300.132
300.198
300.294
300.432
300.627
300.904
301.294
301.849
302.667
300.002
300.002
300.003
300.004
300.007
300.01
300.016
300.025
300.039
300.06
300.091
300.137
300.204
300.299
300.434
300.621
300.873
301.205
301.632
302.182
300.002
300.002
300.003
300.004
300.007
300.011
300.017
300.026
300.041
300.062
300.094
300.141
300.209
300.305
300.439
300.619
300.852
301.133
301.424
301.599
300.058
300.082
300.103
300.123
300.14
300.156
300.17
300.181
300.188
300.191
300.19
300.184
300.173
300.158
300.14
300.118
300.094
300.068
300.041
300.014
300.074
300.097
300.12
300.141
300.162
300.181
300.197
300.21
300.219
300.223
300.221
300.215
300.202
300.185
300.164
300.138
300.11
300.08
300.048
300.016
300.104
300.131
300.159
300.187
300.214
300.24
300.262
300.28
300.293
300.299
300.297
300.288
300.272
300.249
300.22
300.186
300.148
300.107
300.065
300.022
300.15
300.186
300.224
300.264
300.304
300.342
300.375
300.402
300.421
300.431
300.429
300.417
300.393
300.36
300.317
300.268
300.213
300.154
300.093
300.031
300.216
300.268
300.325
300.384
300.444
300.501
300.553
300.594
300.624
300.639
300.637
300.618
300.583
300.533
300.47
300.396
300.314
300.227
300.137
300.046
300.311
300.388
300.472
300.562
300.653
300.741
300.819
300.884
300.93
300.953
300.951
300.924
300.871
300.795
300.7
300.589
300.466
300.337
300.203
300.067
300.444
300.557
300.683
300.818
300.956
301.09
301.211
301.31
301.381
301.417
301.415
301.374
301.295
301.181
301.037
300.871
300.688
300.496
300.298
300.099
300.624
300.79
300.977
301.179
301.388
301.591
301.775
301.927
302.035
302.092
302.09
302.029
301.909
301.738
301.523
301.276
301.006
300.723
300.434
300.144
300.863
301.104
301.379
301.68
301.992
302.297
302.576
302.807
302.972
303.058
303.057
302.966
302.788
302.533
302.214
301.848
301.451
301.04
300.623
300.207
301.174
301.519
301.918
302.36
302.824
303.28
303.698
304.045
304.294
304.425
304.425
304.291
304.028
303.65
303.179
302.642
302.066
301.474
300.88
300.292
301.564
302.051
302.624
303.266
303.948
304.625
305.247
305.764
306.135
306.331
306.333
306.137
305.751
305.196
304.507
303.725
302.896
302.054
301.222
300.404
302.035
302.71
303.52
304.445
305.44
306.436
307.355
308.118
308.665
308.953
308.959
308.677
308.116
307.308
306.304
305.174
303.99
302.809
301.661
300.549
302.578
303.493
304.62
305.936
307.377
308.836
310.184
311.299
312.094
312.512
312.524
312.121
311.316
310.148
308.696
307.071
305.394
303.758
302.205
300.725
303.158
304.369
305.907
307.758
309.834
311.965
313.931
315.544
316.679
317.273
317.293
316.729
315.589
313.919
311.827
309.495
307.134
304.898
302.842
300.929
303.713
305.262
307.312
309.881
312.863
315.982
318.842
321.143
322.73
323.548
323.58
322.812
321.231
318.869
315.86
312.503
309.189
306.178
303.527
301.144
304.137
306.029
308.671
312.176
316.462
321.078
325.24
328.465
330.612
331.693
331.739
330.734
328.611
325.323
320.992
316.096
311.44
307.456
304.16
301.334
304.278
306.429
309.662
314.316
320.496
327.538
333.604
337.994
340.748
342.084
342.146
340.914
338.207
333.764
327.509
320.142
313.571
308.442
304.558
301.438
303.95
306.115
309.72
315.564
324.473
335.944
344.763
350.394
353.602
355.074
355.146
353.802
350.667
345.007
335.995
324.139
314.857
308.607
304.434
301.369
302.979
304.679
307.975
314.348
326.696
348.015
360.308
366.547
369.6
370.889
370.956
369.79
366.827
360.6
348.156
326.387
313.76
307.131
303.443
301.035
301.276
301.871
303.477
307.665
320.759
370.13
383.198
387.342
388.888
389.461
389.491
388.975
387.479
383.367
370.269
320.546
307.392
303.14
301.382
300.404
)
;

boundaryField
{
    inlet
    {
        type            fixedValue;
        value           nonuniform List<scalar> 
20
(
300
300
300
300
300
400
400
400
400
400
400
400
400
400
400
300
300
300
300
300
)
;
    }
    outlet
    {
        type            zeroGradient;
    }
    fixedWalls
    {
        type            inletOutlet;
        inletValue      uniform 300;
        value           nonuniform List<scalar> 
80
(
300
300
300
300
300
300
300
300
300.001
300.001
300.001
300.001
300.001
300.001
300.001
300.001
300.001
300.002
300.002
300.002
300
300
300
300
300
300
300
300
300
300
300
300
300
300
300
300
300
300
300
300
300.058
300.082
300.103
300.123
300.14
300.156
300.17
300.181
300.188
300.191
300.19
300.184
300.173
300.158
300.14
300.118
300.094
300.068
300.041
300.014
300
300
300
300
300
300
300
300
300
300
300
300
300
300
300
300
300
300
300
300
)
;
    }
    defaultFaces
    {
        type            empty;
    }
}


// ************************************************************************* //
