/*--------------------------------*- C++ -*----------------------------------*\
| =========                 |                                                 |
| \\      /  F ield         | OpenFOAM: The Open Source CFD Toolbox           |
|  \\    /   O peration     | Version:  2.3.x                                 |
|   \\  /    A nd           | Web:      www.OpenFOAM.org                      |
|    \\/     M anipulation  |                                                 |
\*---------------------------------------------------------------------------*/
FoamFile
{
    version     2.0;
    format      ascii;
    class       volScalarField;
    location    "4";
    object      Ts;
}
// * * * * * * * * * * * * * * * * * * * * * * * * * * * * * * * * * * * * * //

dimensions      [0 0 0 1 0 0 0];

internalField   nonuniform List<scalar> 
800
(
300
300
300
300
300
300
300
300.001
300.001
300.001
300.002
300.002
300.003
300.004
300.005
300.007
300.009
300.012
300.015
300.019
300
300
300
300
300
300
300
300.001
300.001
300.001
300.002
300.002
300.003
300.004
300.006
300.008
300.01
300.013
300.017
300.021
300
300
300
300
300
300
300
300.001
300.001
300.001
300.002
300.003
300.004
300.005
300.007
300.01
300.013
300.016
300.021
300.026
300
300
300
300
300
300
300.001
300.001
300.001
300.002
300.003
300.004
300.005
300.007
300.01
300.013
300.017
300.022
300.028
300.035
300
300
300
300
300
300.001
300.001
300.001
300.002
300.002
300.003
300.005
300.007
300.009
300.013
300.017
300.023
300.03
300.038
300.048
300
300
300
300
300
300.001
300.001
300.001
300.002
300.003
300.004
300.006
300.009
300.012
300.017
300.023
300.031
300.04
300.052
300.066
300
300
300
300
300.001
300.001
300.001
300.002
300.003
300.004
300.006
300.008
300.012
300.016
300.023
300.031
300.042
300.055
300.072
300.091
300
300
300
300
300.001
300.001
300.002
300.002
300.003
300.005
300.007
300.011
300.015
300.021
300.03
300.041
300.056
300.074
300.097
300.124
300
300
300
300.001
300.001
300.001
300.002
300.003
300.004
300.006
300.009
300.014
300.019
300.028
300.039
300.054
300.073
300.098
300.129
300.167
300
300
300
300.001
300.001
300.002
300.002
300.003
300.005
300.008
300.012
300.017
300.024
300.035
300.049
300.069
300.094
300.127
300.169
300.221
300
300
300.001
300.001
300.001
300.002
300.003
300.004
300.006
300.01
300.014
300.021
300.03
300.043
300.062
300.086
300.119
300.162
300.217
300.286
300
300
300.001
300.001
300.001
300.002
300.003
300.005
300.008
300.011
300.017
300.025
300.036
300.053
300.075
300.106
300.148
300.203
300.274
300.363
300
300.001
300.001
300.001
300.002
300.002
300.004
300.006
300.009
300.013
300.02
300.029
300.043
300.063
300.09
300.128
300.179
300.248
300.337
300.451
300.001
300.001
300.001
300.001
300.002
300.003
300.004
300.007
300.01
300.015
300.023
300.034
300.05
300.073
300.106
300.151
300.212
300.295
300.405
300.547
300.001
300.001
300.001
300.001
300.002
300.003
300.005
300.008
300.011
300.017
300.026
300.039
300.057
300.084
300.121
300.173
300.245
300.343
300.474
300.646
300.001
300.001
300.001
300.001
300.002
300.004
300.005
300.008
300.013
300.019
300.029
300.043
300.064
300.094
300.136
300.195
300.277
300.389
300.54
300.741
300.001
300.001
300.001
300.002
300.002
300.004
300.006
300.009
300.014
300.021
300.032
300.047
300.07
300.103
300.149
300.214
300.305
300.43
300.599
300.825
300.001
300.001
300.001
300.002
300.003
300.004
300.006
300.01
300.015
300.023
300.034
300.051
300.076
300.111
300.161
300.231
300.328
300.463
300.646
300.893
300.001
300.001
300.001
300.002
300.003
300.004
300.007
300.011
300.016
300.024
300.037
300.054
300.08
300.117
300.17
300.244
300.347
300.489
300.681
300.94
300.001
300.001
300.001
300.002
300.003
300.005
300.007
300.011
300.017
300.026
300.038
300.057
300.084
300.123
300.178
300.255
300.361
300.507
300.705
300.971
300.023
300.027
300.032
300.037
300.041
300.046
300.049
300.052
300.054
300.056
300.056
300.055
300.053
300.05
300.047
300.044
300.041
300.038
300.037
300.037
300.025
300.03
300.036
300.041
300.046
300.051
300.055
300.059
300.061
300.063
300.063
300.062
300.06
300.057
300.053
300.049
300.046
300.043
300.041
300.041
300.032
300.038
300.045
300.052
300.059
300.065
300.071
300.076
300.079
300.081
300.081
300.079
300.076
300.072
300.068
300.063
300.058
300.054
300.051
300.051
300.043
300.052
300.061
300.071
300.08
300.09
300.098
300.104
300.109
300.111
300.111
300.109
300.105
300.1
300.093
300.085
300.078
300.072
300.068
300.068
300.059
300.072
300.085
300.099
300.113
300.127
300.138
300.148
300.155
300.159
300.159
300.156
300.15
300.141
300.131
300.12
300.11
300.101
300.095
300.093
300.082
300.101
300.12
300.141
300.161
300.181
300.198
300.212
300.223
300.228
300.228
300.224
300.215
300.202
300.187
300.171
300.155
300.141
300.132
300.129
300.114
300.14
300.169
300.199
300.229
300.257
300.283
300.304
300.319
300.327
300.327
300.321
300.307
300.288
300.266
300.241
300.218
300.198
300.184
300.179
300.157
300.194
300.235
300.278
300.321
300.363
300.4
300.431
300.453
300.464
300.465
300.455
300.436
300.408
300.374
300.338
300.304
300.274
300.253
300.245
300.212
300.264
300.322
300.383
300.445
300.505
300.559
300.603
300.635
300.652
300.654
300.639
300.61
300.57
300.521
300.469
300.418
300.374
300.343
300.331
300.283
300.354
300.435
300.521
300.609
300.694
300.771
300.834
300.88
300.904
300.906
300.885
300.844
300.785
300.715
300.64
300.567
300.504
300.459
300.44
300.369
300.467
300.577
300.697
300.82
300.939
301.048
301.137
301.202
301.236
301.238
301.209
301.15
301.067
300.967
300.86
300.757
300.668
300.604
300.576
300.473
300.604
300.753
300.916
301.085
301.251
301.401
301.525
301.615
301.663
301.666
301.624
301.542
301.425
301.286
301.137
300.993
300.869
300.779
300.738
300.593
300.764
300.961
301.18
301.409
301.635
301.841
302.011
302.133
302.198
302.202
302.145
302.032
301.872
301.68
301.475
301.277
301.107
300.985
300.927
300.726
300.944
301.201
301.489
301.794
302.097
302.374
302.603
302.766
302.853
302.858
302.781
302.629
302.413
302.153
301.876
301.609
301.381
301.217
301.138
300.865
301.137
301.462
301.834
302.233
302.633
302.999
303.3
303.514
303.628
303.634
303.533
303.333
303.047
302.702
302.332
301.979
301.68
301.466
301.363
301.001
301.33
301.731
302.199
302.712
303.231
303.705
304.092
304.365
304.508
304.515
304.387
304.131
303.762
303.313
302.83
302.372
301.989
301.719
301.588
301.123
301.507
301.987
302.56
303.203
303.864
304.465
304.948
305.283
305.457
305.466
305.309
304.993
304.531
303.959
303.339
302.759
302.285
301.955
301.798
301.221
301.651
302.202
302.879
303.665
304.49
305.23
305.811
306.205
306.407
306.417
306.235
305.861
305.305
304.598
303.818
303.104
302.538
302.155
301.975
301.287
301.749
302.351
303.115
304.038
305.049
305.924
306.587
307.026
307.247
307.257
307.057
306.641
306.006
305.166
304.206
303.362
302.721
302.301
302.107
301.325
301.801
302.427
303.237
304.256
305.45
306.419
307.125
307.585
307.814
307.825
307.617
307.181
306.504
305.574
304.435
303.502
302.822
302.387
302.191
)
;

boundaryField
{
    inlet
    {
        type            zeroGradient;
    }
    outlet
    {
        type            zeroGradient;
    }
    fixedWalls
    {
        type            zeroGradient;
    }
    defaultFaces
    {
        type            empty;
    }
}


// ************************************************************************* //
