/*--------------------------------*- C++ -*----------------------------------*\
| =========                 |                                                 |
| \\      /  F ield         | OpenFOAM: The Open Source CFD Toolbox           |
|  \\    /   O peration     | Version:  2.3.x                                 |
|   \\  /    A nd           | Web:      www.OpenFOAM.org                      |
|    \\/     M anipulation  |                                                 |
\*---------------------------------------------------------------------------*/
FoamFile
{
    version     2.0;
    format      ascii;
    class       volScalarField;
    location    "2";
    object      T;
}
// * * * * * * * * * * * * * * * * * * * * * * * * * * * * * * * * * * * * * //

dimensions      [0 0 0 1 0 0 0];

internalField   nonuniform List<scalar> 
800
(
300
300
300
300
300
300
300
300
300
300
300
300
300
300
300
300
300
300.001
300.001
300.002
300
300
300
300
300
300
300
300
300
300
300
300
300
300
300.001
300.001
300.001
300.002
300.002
300.004
300
300
300
300
300
300
300
300
300
300
300
300
300
300.001
300.001
300.002
300.002
300.003
300.005
300.006
300
300
300
300
300
300
300
300
300
300
300
300
300.001
300.001
300.002
300.003
300.004
300.005
300.008
300.01
300
300
300
300
300
300
300
300
300
300
300
300.001
300.001
300.002
300.003
300.004
300.006
300.009
300.013
300.017
300
300
300
300
300
300
300
300
300
300
300.001
300.001
300.002
300.003
300.004
300.007
300.01
300.014
300.02
300.028
300
300
300
300
300
300
300
300
300
300.001
300.001
300.002
300.003
300.004
300.007
300.01
300.015
300.022
300.032
300.045
300
300
300
300
300
300
300
300
300.001
300.001
300.001
300.002
300.004
300.006
300.01
300.015
300.023
300.034
300.05
300.072
300
300
300
300
300
300
300
300
300.001
300.001
300.002
300.003
300.005
300.009
300.014
300.022
300.034
300.052
300.077
300.111
300
300
300
300
300
300
300
300.001
300.001
300.002
300.003
300.004
300.007
300.012
300.02
300.032
300.05
300.076
300.115
300.17
300
300
300
300
300
300
300
300.001
300.001
300.002
300.003
300.006
300.01
300.016
300.027
300.044
300.07
300.11
300.169
300.253
300
300
300
300
300
300
300
300.001
300.001
300.003
300.004
300.008
300.013
300.022
300.036
300.059
300.096
300.153
300.239
300.366
300
300
300
300
300
300
300.001
300.001
300.002
300.003
300.005
300.009
300.016
300.027
300.046
300.077
300.127
300.206
300.328
300.513
300
300
300
300
300
300
300.001
300.001
300.002
300.004
300.006
300.011
300.019
300.033
300.057
300.096
300.16
300.265
300.431
300.69
300
300
300
300
300
300
300.001
300.001
300.002
300.004
300.007
300.013
300.023
300.039
300.067
300.115
300.194
300.325
300.539
300.883
300
300
300
300
300
300
300.001
300.002
300.003
300.005
300.008
300.015
300.026
300.044
300.076
300.131
300.222
300.376
300.634
301.061
300
300
300
300
300
300.001
300.001
300.002
300.003
300.005
300.009
300.016
300.028
300.048
300.083
300.141
300.24
300.407
300.689
301.171
300
300
300
300
300
300.001
300.001
300.002
300.003
300.006
300.01
300.017
300.03
300.051
300.087
300.147
300.245
300.409
300.682
301.151
300
300
300
300
300
300.001
300.001
300.002
300.003
300.006
300.011
300.019
300.032
300.054
300.09
300.148
300.241
300.387
300.612
300.967
300
300
300
300
300
300.001
300.001
300.002
300.004
300.007
300.011
300.02
300.033
300.056
300.093
300.151
300.239
300.366
300.531
300.693
300.004
300.006
300.007
300.009
300.01
300.012
300.013
300.014
300.014
300.015
300.015
300.014
300.013
300.012
300.011
300.009
300.007
300.005
300.003
300.001
300.005
300.007
300.009
300.011
300.013
300.015
300.016
300.018
300.019
300.019
300.019
300.018
300.017
300.016
300.014
300.012
300.009
300.007
300.004
300.001
300.008
300.011
300.014
300.017
300.02
300.023
300.025
300.028
300.029
300.03
300.03
300.029
300.027
300.025
300.022
300.018
300.014
300.01
300.006
300.002
300.014
300.018
300.023
300.028
300.033
300.038
300.043
300.047
300.049
300.051
300.051
300.049
300.046
300.042
300.037
300.031
300.024
300.017
300.01
300.003
300.023
300.03
300.038
300.047
300.056
300.065
300.074
300.08
300.086
300.088
300.088
300.086
300.081
300.073
300.064
300.053
300.042
300.03
300.018
300.006
300.038
300.05
300.064
300.079
300.096
300.112
300.127
300.139
300.148
300.153
300.154
300.149
300.14
300.127
300.11
300.092
300.072
300.051
300.03
300.01
300.062
300.082
300.107
300.134
300.162
300.191
300.217
300.239
300.255
300.264
300.265
300.257
300.241
300.218
300.19
300.157
300.122
300.087
300.051
300.017
300.099
300.134
300.175
300.222
300.272
300.322
300.369
300.408
300.436
300.452
300.453
300.44
300.412
300.372
300.322
300.265
300.206
300.145
300.086
300.028
300.157
300.215
300.285
300.365
300.452
300.539
300.62
300.688
300.738
300.766
300.768
300.745
300.697
300.627
300.541
300.444
300.342
300.24
300.141
300.046
300.243
300.338
300.455
300.592
300.74
300.891
301.031
301.149
301.236
301.283
301.287
301.247
301.165
301.045
300.897
300.732
300.56
300.39
300.228
300.074
300.369
300.523
300.716
300.944
301.197
301.454
301.695
301.897
302.044
302.124
302.132
302.064
301.925
301.722
301.47
301.189
300.902
300.623
300.362
300.117
300.545
300.789
301.102
301.481
301.906
302.343
302.752
303.093
303.34
303.473
303.486
303.373
303.14
302.798
302.373
301.903
301.426
300.975
300.561
300.18
300.782
301.159
301.657
302.276
302.984
303.721
304.408
304.976
305.381
305.599
305.619
305.436
305.053
304.485
303.775
302.99
302.208
301.487
300.846
300.27
301.08
301.645
302.421
303.416
304.585
305.817
306.959
307.89
308.541
308.886
308.917
308.626
308.009
307.082
305.906
304.605
303.334
302.2
301.232
300.391
301.422
302.237
303.408
304.977
306.889
308.94
310.822
312.314
313.329
313.855
313.9
313.455
312.493
311.007
309.078
306.929
304.88
303.133
301.717
300.538
301.76
302.872
304.566
306.976
310.075
313.501
316.569
318.895
320.407
321.168
321.232
320.586
319.148
316.834
313.698
310.134
306.86
304.238
302.254
300.696
301.996
303.398
305.697
309.25
314.222
320.043
324.989
328.461
330.573
331.589
331.671
330.806
328.797
325.344
320.307
314.291
309.107
305.325
302.719
300.822
301.987
303.536
306.337
311.21
319.036
329.405
337.212
342.021
344.661
345.853
345.948
344.931
342.419
337.647
329.728
319.082
311.027
305.95
302.873
300.846
301.574
302.903
305.656
311.348
322.92
343.441
355.006
360.659
363.312
364.407
364.494
363.563
361.042
355.449
343.79
322.888
311.131
305.319
302.381
300.677
300.672
301.208
302.629
306.562
319.358
368.418
381.204
385.124
386.521
387.022
387.061
386.633
385.304
381.433
368.637
319.25
306.426
302.478
300.994
300.271
)
;

boundaryField
{
    inlet
    {
        type            fixedValue;
        value           nonuniform List<scalar> 
20
(
300
300
300
300
300
400
400
400
400
400
400
400
400
400
400
300
300
300
300
300
)
;
    }
    outlet
    {
        type            zeroGradient;
    }
    fixedWalls
    {
        type            inletOutlet;
        inletValue      uniform 300;
        value           nonuniform List<scalar> 
80
(
300
300
300
300
300
300
300
300
300
300
300
300
300
300
300
300
300
300
300
300
300
300
300
300
300
300
300
300
300
300
300
300
300
300
300
300
300
300
300
300
300.004
300.006
300.007
300.009
300.01
300.012
300.013
300.014
300.014
300.015
300.015
300.014
300.013
300.012
300.011
300.009
300.007
300.005
300.003
300.001
300
300
300
300
300
300
300
300
300
300
300
300
300
300
300
300
300
300
300
300
)
;
    }
    defaultFaces
    {
        type            empty;
    }
}


// ************************************************************************* //
