/*--------------------------------*- C++ -*----------------------------------*\
| =========                 |                                                 |
| \\      /  F ield         | OpenFOAM: The Open Source CFD Toolbox           |
|  \\    /   O peration     | Version:  2.3.x                                 |
|   \\  /    A nd           | Web:      www.OpenFOAM.org                      |
|    \\/     M anipulation  |                                                 |
\*---------------------------------------------------------------------------*/
FoamFile
{
    version     2.0;
    format      ascii;
    class       volScalarField;
    location    "2";
    object      Ts;
}
// * * * * * * * * * * * * * * * * * * * * * * * * * * * * * * * * * * * * * //

dimensions      [0 0 0 1 0 0 0];

internalField   nonuniform List<scalar> 
800
(
300
300
300
300
300
300
300
300
300
300
300
300
300
300
300
300
300
300
300.001
300.001
300
300
300
300
300
300
300
300
300
300
300
300
300
300
300
300
300
300.001
300.001
300.001
300
300
300
300
300
300
300
300
300
300
300
300
300
300
300
300
300.001
300.001
300.001
300.001
300
300
300
300
300
300
300
300
300
300
300
300
300
300
300
300.001
300.001
300.001
300.002
300.002
300
300
300
300
300
300
300
300
300
300
300
300
300
300
300.001
300.001
300.001
300.002
300.003
300.003
300
300
300
300
300
300
300
300
300
300
300
300
300
300.001
300.001
300.001
300.002
300.003
300.004
300.005
300
300
300
300
300
300
300
300
300
300
300
300
300.001
300.001
300.001
300.002
300.003
300.004
300.006
300.009
300
300
300
300
300
300
300
300
300
300
300
300.001
300.001
300.001
300.002
300.003
300.005
300.007
300.009
300.013
300
300
300
300
300
300
300
300
300
300
300
300.001
300.001
300.002
300.003
300.005
300.007
300.01
300.014
300.02
300
300
300
300
300
300
300
300
300
300
300.001
300.001
300.002
300.003
300.004
300.006
300.01
300.014
300.021
300.029
300
300
300
300
300
300
300
300
300
300.001
300.001
300.001
300.002
300.004
300.006
300.009
300.013
300.02
300.03
300.042
300
300
300
300
300
300
300
300
300
300.001
300.001
300.002
300.003
300.005
300.008
300.012
300.018
300.028
300.041
300.06
300
300
300
300
300
300
300
300
300
300.001
300.001
300.002
300.004
300.006
300.01
300.015
300.024
300.037
300.056
300.083
300
300
300
300
300
300
300
300
300.001
300.001
300.002
300.003
300.005
300.008
300.012
300.02
300.031
300.048
300.074
300.11
300
300
300
300
300
300
300
300
300.001
300.001
300.002
300.003
300.006
300.009
300.015
300.024
300.038
300.06
300.094
300.142
300
300
300
300
300
300
300
300
300.001
300.001
300.002
300.004
300.006
300.011
300.018
300.029
300.046
300.073
300.115
300.176
300
300
300
300
300
300
300
300.001
300.001
300.002
300.003
300.004
300.007
300.012
300.02
300.033
300.053
300.085
300.135
300.21
300
300
300
300
300
300
300
300.001
300.001
300.002
300.003
300.005
300.008
300.014
300.023
300.037
300.06
300.096
300.153
300.239
300
300
300
300
300
300
300
300.001
300.001
300.002
300.003
300.005
300.009
300.015
300.025
300.041
300.066
300.105
300.167
300.262
300
300
300
300
300
300
300
300.001
300.001
300.002
300.003
300.006
300.01
300.016
300.027
300.044
300.071
300.113
300.178
300.278
300.001
300.001
300.002
300.002
300.002
300.002
300.003
300.003
300.003
300.003
300.003
300.003
300.003
300.003
300.002
300.002
300.002
300.002
300.002
300.002
300.001
300.002
300.002
300.002
300.003
300.003
300.003
300.004
300.004
300.004
300.004
300.004
300.004
300.003
300.003
300.003
300.002
300.002
300.002
300.002
300.002
300.002
300.003
300.003
300.004
300.004
300.005
300.005
300.006
300.006
300.006
300.006
300.005
300.005
300.004
300.004
300.004
300.003
300.003
300.003
300.003
300.004
300.004
300.005
300.006
300.007
300.008
300.009
300.009
300.009
300.009
300.009
300.009
300.008
300.007
300.006
300.006
300.005
300.005
300.005
300.005
300.006
300.007
300.009
300.01
300.012
300.013
300.014
300.015
300.015
300.015
300.015
300.014
300.013
300.012
300.011
300.009
300.008
300.007
300.007
300.007
300.009
300.012
300.014
300.017
300.019
300.022
300.024
300.025
300.026
300.026
300.025
300.024
300.022
300.02
300.017
300.015
300.013
300.012
300.012
300.011
300.015
300.019
300.023
300.027
300.032
300.036
300.039
300.041
300.043
300.043
300.041
300.039
300.036
300.032
300.028
300.024
300.021
300.019
300.018
300.018
300.023
300.03
300.037
300.044
300.051
300.058
300.063
300.067
300.069
300.07
300.068
300.064
300.058
300.052
300.045
300.039
300.033
300.029
300.028
300.027
300.036
300.046
300.058
300.07
300.082
300.093
300.102
300.109
300.112
300.112
300.109
300.103
300.094
300.083
300.072
300.061
300.052
300.045
300.043
300.04
300.054
300.071
300.089
300.109
300.129
300.147
300.162
300.172
300.178
300.178
300.173
300.163
300.148
300.131
300.112
300.094
300.079
300.069
300.064
300.059
300.081
300.106
300.136
300.167
300.199
300.228
300.252
300.27
300.279
300.279
300.271
300.254
300.231
300.202
300.172
300.143
300.119
300.102
300.094
300.085
300.118
300.157
300.203
300.252
300.302
300.348
300.387
300.414
300.429
300.43
300.416
300.39
300.352
300.307
300.26
300.214
300.175
300.147
300.135
300.119
300.167
300.226
300.296
300.372
300.45
300.522
300.582
300.624
300.647
300.648
300.627
300.586
300.528
300.458
300.383
300.311
300.25
300.208
300.189
300.161
300.23
300.317
300.421
300.537
300.656
300.766
300.856
300.921
300.955
300.956
300.925
300.863
300.774
300.667
300.551
300.442
300.35
300.285
300.256
300.212
300.306
300.43
300.581
300.753
300.931
301.095
301.23
301.324
301.374
301.376
301.33
301.239
301.108
300.946
300.773
300.609
300.473
300.379
300.335
300.267
300.393
300.563
300.776
301.025
301.285
301.524
301.717
301.85
301.918
301.921
301.858
301.729
301.54
301.304
301.049
300.811
300.617
300.485
300.424
300.322
300.482
300.705
300.995
301.343
301.714
302.051
302.317
302.496
302.586
302.59
302.505
302.332
302.071
301.738
301.373
301.037
300.772
300.595
300.514
300.37
300.563
300.84
301.214
301.683
302.197
302.653
302.999
303.226
303.338
303.342
303.237
303.017
302.675
302.224
301.717
301.264
300.919
300.697
300.597
300.406
300.624
300.944
301.396
301.992
302.681
303.263
303.684
303.95
304.079
304.083
303.962
303.703
303.288
302.711
302.03
301.452
301.035
300.777
300.664
300.43
300.661
301.005
301.503
302.195
303.068
303.746
304.211
304.498
304.635
304.639
304.509
304.229
303.77
303.099
302.236
301.565
301.106
300.83
300.711
)
;

boundaryField
{
    inlet
    {
        type            zeroGradient;
    }
    outlet
    {
        type            zeroGradient;
    }
    fixedWalls
    {
        type            zeroGradient;
    }
    defaultFaces
    {
        type            empty;
    }
}


// ************************************************************************* //
